LAMMPS data file: 256 Cu atoms, FCC a=3.615, 4x4x4

256 atoms
1 atom types

0.0 14.4600000000 xlo xhi
0.0 14.4600000000 ylo yhi
0.0 14.4600000000 zlo zhi

Masses

1 63.546

Atoms # atomic

1 1 0.0000000000 0.0000000000 0.0000000000
2 1 1.8075000000 1.8075000000 0.0000000000
3 1 1.8075000000 0.0000000000 1.8075000000
4 1 0.0000000000 1.8075000000 1.8075000000
5 1 3.6150000000 0.0000000000 0.0000000000
6 1 5.4225000000 1.8075000000 0.0000000000
7 1 5.4225000000 0.0000000000 1.8075000000
8 1 3.6150000000 1.8075000000 1.8075000000
9 1 7.2300000000 0.0000000000 0.0000000000
10 1 9.0375000000 1.8075000000 0.0000000000
11 1 9.0375000000 0.0000000000 1.8075000000
12 1 7.2300000000 1.8075000000 1.8075000000
13 1 10.8450000000 0.0000000000 0.0000000000
14 1 12.6525000000 1.8075000000 0.0000000000
15 1 12.6525000000 0.0000000000 1.8075000000
16 1 10.8450000000 1.8075000000 1.8075000000
17 1 0.0000000000 3.6150000000 0.0000000000
18 1 1.8075000000 5.4225000000 0.0000000000
19 1 1.8075000000 3.6150000000 1.8075000000
20 1 0.0000000000 5.4225000000 1.8075000000
21 1 3.6150000000 3.6150000000 0.0000000000
22 1 5.4225000000 5.4225000000 0.0000000000
23 1 5.4225000000 3.6150000000 1.8075000000
24 1 3.6150000000 5.4225000000 1.8075000000
25 1 7.2300000000 3.6150000000 0.0000000000
26 1 9.0375000000 5.4225000000 0.0000000000
27 1 9.0375000000 3.6150000000 1.8075000000
28 1 7.2300000000 5.4225000000 1.8075000000
29 1 10.8450000000 3.6150000000 0.0000000000
30 1 12.6525000000 5.4225000000 0.0000000000
31 1 12.6525000000 3.6150000000 1.8075000000
32 1 10.8450000000 5.4225000000 1.8075000000
33 1 0.0000000000 7.2300000000 0.0000000000
34 1 1.8075000000 9.0375000000 0.0000000000
35 1 1.8075000000 7.2300000000 1.8075000000
36 1 0.0000000000 9.0375000000 1.8075000000
37 1 3.6150000000 7.2300000000 0.0000000000
38 1 5.4225000000 9.0375000000 0.0000000000
39 1 5.4225000000 7.2300000000 1.8075000000
40 1 3.6150000000 9.0375000000 1.8075000000
41 1 7.2300000000 7.2300000000 0.0000000000
42 1 9.0375000000 9.0375000000 0.0000000000
43 1 9.0375000000 7.2300000000 1.8075000000
44 1 7.2300000000 9.0375000000 1.8075000000
45 1 10.8450000000 7.2300000000 0.0000000000
46 1 12.6525000000 9.0375000000 0.0000000000
47 1 12.6525000000 7.2300000000 1.8075000000
48 1 10.8450000000 9.0375000000 1.8075000000
49 1 0.0000000000 10.8450000000 0.0000000000
50 1 1.8075000000 12.6525000000 0.0000000000
51 1 1.8075000000 10.8450000000 1.8075000000
52 1 0.0000000000 12.6525000000 1.8075000000
53 1 3.6150000000 10.8450000000 0.0000000000
54 1 5.4225000000 12.6525000000 0.0000000000
55 1 5.4225000000 10.8450000000 1.8075000000
56 1 3.6150000000 12.6525000000 1.8075000000
57 1 7.2300000000 10.8450000000 0.0000000000
58 1 9.0375000000 12.6525000000 0.0000000000
59 1 9.0375000000 10.8450000000 1.8075000000
60 1 7.2300000000 12.6525000000 1.8075000000
61 1 10.8450000000 10.8450000000 0.0000000000
62 1 12.6525000000 12.6525000000 0.0000000000
63 1 12.6525000000 10.8450000000 1.8075000000
64 1 10.8450000000 12.6525000000 1.8075000000
65 1 0.0000000000 0.0000000000 3.6150000000
66 1 1.8075000000 1.8075000000 3.6150000000
67 1 1.8075000000 0.0000000000 5.4225000000
68 1 0.0000000000 1.8075000000 5.4225000000
69 1 3.6150000000 0.0000000000 3.6150000000
70 1 5.4225000000 1.8075000000 3.6150000000
71 1 5.4225000000 0.0000000000 5.4225000000
72 1 3.6150000000 1.8075000000 5.4225000000
73 1 7.2300000000 0.0000000000 3.6150000000
74 1 9.0375000000 1.8075000000 3.6150000000
75 1 9.0375000000 0.0000000000 5.4225000000
76 1 7.2300000000 1.8075000000 5.4225000000
77 1 10.8450000000 0.0000000000 3.6150000000
78 1 12.6525000000 1.8075000000 3.6150000000
79 1 12.6525000000 0.0000000000 5.4225000000
80 1 10.8450000000 1.8075000000 5.4225000000
81 1 0.0000000000 3.6150000000 3.6150000000
82 1 1.8075000000 5.4225000000 3.6150000000
83 1 1.8075000000 3.6150000000 5.4225000000
84 1 0.0000000000 5.4225000000 5.4225000000
85 1 3.6150000000 3.6150000000 3.6150000000
86 1 5.4225000000 5.4225000000 3.6150000000
87 1 5.4225000000 3.6150000000 5.4225000000
88 1 3.6150000000 5.4225000000 5.4225000000
89 1 7.2300000000 3.6150000000 3.6150000000
90 1 9.0375000000 5.4225000000 3.6150000000
91 1 9.0375000000 3.6150000000 5.4225000000
92 1 7.2300000000 5.4225000000 5.4225000000
93 1 10.8450000000 3.6150000000 3.6150000000
94 1 12.6525000000 5.4225000000 3.6150000000
95 1 12.6525000000 3.6150000000 5.4225000000
96 1 10.8450000000 5.4225000000 5.4225000000
97 1 0.0000000000 7.2300000000 3.6150000000
98 1 1.8075000000 9.0375000000 3.6150000000
99 1 1.8075000000 7.2300000000 5.4225000000
100 1 0.0000000000 9.0375000000 5.4225000000
101 1 3.6150000000 7.2300000000 3.6150000000
102 1 5.4225000000 9.0375000000 3.6150000000
103 1 5.4225000000 7.2300000000 5.4225000000
104 1 3.6150000000 9.0375000000 5.4225000000
105 1 7.2300000000 7.2300000000 3.6150000000
106 1 9.0375000000 9.0375000000 3.6150000000
107 1 9.0375000000 7.2300000000 5.4225000000
108 1 7.2300000000 9.0375000000 5.4225000000
109 1 10.8450000000 7.2300000000 3.6150000000
110 1 12.6525000000 9.0375000000 3.6150000000
111 1 12.6525000000 7.2300000000 5.4225000000
112 1 10.8450000000 9.0375000000 5.4225000000
113 1 0.0000000000 10.8450000000 3.6150000000
114 1 1.8075000000 12.6525000000 3.6150000000
115 1 1.8075000000 10.8450000000 5.4225000000
116 1 0.0000000000 12.6525000000 5.4225000000
117 1 3.6150000000 10.8450000000 3.6150000000
118 1 5.4225000000 12.6525000000 3.6150000000
119 1 5.4225000000 10.8450000000 5.4225000000
120 1 3.6150000000 12.6525000000 5.4225000000
121 1 7.2300000000 10.8450000000 3.6150000000
122 1 9.0375000000 12.6525000000 3.6150000000
123 1 9.0375000000 10.8450000000 5.4225000000
124 1 7.2300000000 12.6525000000 5.4225000000
125 1 10.8450000000 10.8450000000 3.6150000000
126 1 12.6525000000 12.6525000000 3.6150000000
127 1 12.6525000000 10.8450000000 5.4225000000
128 1 10.8450000000 12.6525000000 5.4225000000
129 1 0.0000000000 0.0000000000 7.2300000000
130 1 1.8075000000 1.8075000000 7.2300000000
131 1 1.8075000000 0.0000000000 9.0375000000
132 1 0.0000000000 1.8075000000 9.0375000000
133 1 3.6150000000 0.0000000000 7.2300000000
134 1 5.4225000000 1.8075000000 7.2300000000
135 1 5.4225000000 0.0000000000 9.0375000000
136 1 3.6150000000 1.8075000000 9.0375000000
137 1 7.2300000000 0.0000000000 7.2300000000
138 1 9.0375000000 1.8075000000 7.2300000000
139 1 9.0375000000 0.0000000000 9.0375000000
140 1 7.2300000000 1.8075000000 9.0375000000
141 1 10.8450000000 0.0000000000 7.2300000000
142 1 12.6525000000 1.8075000000 7.2300000000
143 1 12.6525000000 0.0000000000 9.0375000000
144 1 10.8450000000 1.8075000000 9.0375000000
145 1 0.0000000000 3.6150000000 7.2300000000
146 1 1.8075000000 5.4225000000 7.2300000000
147 1 1.8075000000 3.6150000000 9.0375000000
148 1 0.0000000000 5.4225000000 9.0375000000
149 1 3.6150000000 3.6150000000 7.2300000000
150 1 5.4225000000 5.4225000000 7.2300000000
151 1 5.4225000000 3.6150000000 9.0375000000
152 1 3.6150000000 5.4225000000 9.0375000000
153 1 7.2300000000 3.6150000000 7.2300000000
154 1 9.0375000000 5.4225000000 7.2300000000
155 1 9.0375000000 3.6150000000 9.0375000000
156 1 7.2300000000 5.4225000000 9.0375000000
157 1 10.8450000000 3.6150000000 7.2300000000
158 1 12.6525000000 5.4225000000 7.2300000000
159 1 12.6525000000 3.6150000000 9.0375000000
160 1 10.8450000000 5.4225000000 9.0375000000
161 1 0.0000000000 7.2300000000 7.2300000000
162 1 1.8075000000 9.0375000000 7.2300000000
163 1 1.8075000000 7.2300000000 9.0375000000
164 1 0.0000000000 9.0375000000 9.0375000000
165 1 3.6150000000 7.2300000000 7.2300000000
166 1 5.4225000000 9.0375000000 7.2300000000
167 1 5.4225000000 7.2300000000 9.0375000000
168 1 3.6150000000 9.0375000000 9.0375000000
169 1 7.2300000000 7.2300000000 7.2300000000
170 1 9.0375000000 9.0375000000 7.2300000000
171 1 9.0375000000 7.2300000000 9.0375000000
172 1 7.2300000000 9.0375000000 9.0375000000
173 1 10.8450000000 7.2300000000 7.2300000000
174 1 12.6525000000 9.0375000000 7.2300000000
175 1 12.6525000000 7.2300000000 9.0375000000
176 1 10.8450000000 9.0375000000 9.0375000000
177 1 0.0000000000 10.8450000000 7.2300000000
178 1 1.8075000000 12.6525000000 7.2300000000
179 1 1.8075000000 10.8450000000 9.0375000000
180 1 0.0000000000 12.6525000000 9.0375000000
181 1 3.6150000000 10.8450000000 7.2300000000
182 1 5.4225000000 12.6525000000 7.2300000000
183 1 5.4225000000 10.8450000000 9.0375000000
184 1 3.6150000000 12.6525000000 9.0375000000
185 1 7.2300000000 10.8450000000 7.2300000000
186 1 9.0375000000 12.6525000000 7.2300000000
187 1 9.0375000000 10.8450000000 9.0375000000
188 1 7.2300000000 12.6525000000 9.0375000000
189 1 10.8450000000 10.8450000000 7.2300000000
190 1 12.6525000000 12.6525000000 7.2300000000
191 1 12.6525000000 10.8450000000 9.0375000000
192 1 10.8450000000 12.6525000000 9.0375000000
193 1 0.0000000000 0.0000000000 10.8450000000
194 1 1.8075000000 1.8075000000 10.8450000000
195 1 1.8075000000 0.0000000000 12.6525000000
196 1 0.0000000000 1.8075000000 12.6525000000
197 1 3.6150000000 0.0000000000 10.8450000000
198 1 5.4225000000 1.8075000000 10.8450000000
199 1 5.4225000000 0.0000000000 12.6525000000
200 1 3.6150000000 1.8075000000 12.6525000000
201 1 7.2300000000 0.0000000000 10.8450000000
202 1 9.0375000000 1.8075000000 10.8450000000
203 1 9.0375000000 0.0000000000 12.6525000000
204 1 7.2300000000 1.8075000000 12.6525000000
205 1 10.8450000000 0.0000000000 10.8450000000
206 1 12.6525000000 1.8075000000 10.8450000000
207 1 12.6525000000 0.0000000000 12.6525000000
208 1 10.8450000000 1.8075000000 12.6525000000
209 1 0.0000000000 3.6150000000 10.8450000000
210 1 1.8075000000 5.4225000000 10.8450000000
211 1 1.8075000000 3.6150000000 12.6525000000
212 1 0.0000000000 5.4225000000 12.6525000000
213 1 3.6150000000 3.6150000000 10.8450000000
214 1 5.4225000000 5.4225000000 10.8450000000
215 1 5.4225000000 3.6150000000 12.6525000000
216 1 3.6150000000 5.4225000000 12.6525000000
217 1 7.2300000000 3.6150000000 10.8450000000
218 1 9.0375000000 5.4225000000 10.8450000000
219 1 9.0375000000 3.6150000000 12.6525000000
220 1 7.2300000000 5.4225000000 12.6525000000
221 1 10.8450000000 3.6150000000 10.8450000000
222 1 12.6525000000 5.4225000000 10.8450000000
223 1 12.6525000000 3.6150000000 12.6525000000
224 1 10.8450000000 5.4225000000 12.6525000000
225 1 0.0000000000 7.2300000000 10.8450000000
226 1 1.8075000000 9.0375000000 10.8450000000
227 1 1.8075000000 7.2300000000 12.6525000000
228 1 0.0000000000 9.0375000000 12.6525000000
229 1 3.6150000000 7.2300000000 10.8450000000
230 1 5.4225000000 9.0375000000 10.8450000000
231 1 5.4225000000 7.2300000000 12.6525000000
232 1 3.6150000000 9.0375000000 12.6525000000
233 1 7.2300000000 7.2300000000 10.8450000000
234 1 9.0375000000 9.0375000000 10.8450000000
235 1 9.0375000000 7.2300000000 12.6525000000
236 1 7.2300000000 9.0375000000 12.6525000000
237 1 10.8450000000 7.2300000000 10.8450000000
238 1 12.6525000000 9.0375000000 10.8450000000
239 1 12.6525000000 7.2300000000 12.6525000000
240 1 10.8450000000 9.0375000000 12.6525000000
241 1 0.0000000000 10.8450000000 10.8450000000
242 1 1.8075000000 12.6525000000 10.8450000000
243 1 1.8075000000 10.8450000000 12.6525000000
244 1 0.0000000000 12.6525000000 12.6525000000
245 1 3.6150000000 10.8450000000 10.8450000000
246 1 5.4225000000 12.6525000000 10.8450000000
247 1 5.4225000000 10.8450000000 12.6525000000
248 1 3.6150000000 12.6525000000 12.6525000000
249 1 7.2300000000 10.8450000000 10.8450000000
250 1 9.0375000000 12.6525000000 10.8450000000
251 1 9.0375000000 10.8450000000 12.6525000000
252 1 7.2300000000 12.6525000000 12.6525000000
253 1 10.8450000000 10.8450000000 10.8450000000
254 1 12.6525000000 12.6525000000 10.8450000000
255 1 12.6525000000 10.8450000000 12.6525000000
256 1 10.8450000000 12.6525000000 12.6525000000
