ITEM: TIMESTEP
0
ITEM: NUMBER OF ATOMS
256
ITEM: BOX BOUNDS pp pp pp
0.0000000000000000e+00 1.4460000000000001e+01
0.0000000000000000e+00 1.4460000000000001e+01
0.0000000000000000e+00 1.4460000000000001e+01
ITEM: ATOMS id type x y z fx fy fz
1 1                    0                    0                    0 -3.27515792264421e-15 -3.33760796777938e-15 -3.39311911901063e-15
2 1               1.8075               1.8075                    0 2.77555756156289e-16 4.74446870679657e-16 -4.69763117294519e-15
3 1               1.8075                    0               1.8075 3.33066907387547e-16 -4.61089499914635e-15 4.05057931640584e-16
4 1                    0               1.8075               1.8075 -4.57966997657877e-15 4.16333634234434e-16 4.57966997657877e-16
5 1                3.615                    0                    0 -1.15792792021452e-16 -3.94129173741931e-15 -4.10088629720917e-15
6 1               5.4225               1.8075                    0 1.69569219776733e-16 3.60822483003176e-16 -4.57966997657877e-15
7 1               5.4225                    0               1.8075  1.5482407023093e-16 -4.46864767411626e-15 4.30211422042248e-16
8 1                3.615               1.8075               1.8075 -1.6306400674182e-16 3.05311331771918e-16 3.63424568217141e-16
9 1                 7.23                    0                    0 -3.48375842063042e-15 -3.41393580072236e-15 -3.47985529280948e-15
10 1               9.0375               1.8075                    0 6.69299685118752e-15  4.9960036108132e-16 -3.47638584585752e-15
11 1               9.0375                    0               1.8075 6.65743501992999e-15 -3.46944695195361e-15 5.55111512312578e-16
12 1                 7.23               1.8075               1.8075 -2.2516710718179e-15 3.60822483003176e-16 4.73579508941668e-16
13 1               10.845                    0                    0 -6.79317713192518e-15 -2.77902700851484e-15 -2.78770062589473e-15
14 1              12.6525               1.8075                    0  6.5294991635767e-15 4.78783679369599e-16 -3.44863027024189e-15
15 1              12.6525                    0               1.8075 6.45664077758568e-15 -3.51108031537706e-15 5.55111512312578e-16
16 1               10.845               1.8075               1.8075 -6.77236045021345e-15 4.60569082871842e-16 6.27969898303604e-16
17 1                    0                3.615                    0 -3.87190279838023e-15 -1.52655665885959e-16 -4.02455846426619e-15
18 1               1.8075               5.4225                    0 2.77555756156289e-16 9.19403442267708e-17 -4.6074255521944e-15
19 1               1.8075                3.615               1.8075 1.11022302462516e-16 -9.0205620750794e-17 3.63424568217141e-16
20 1                    0               5.4225               1.8075 -4.44089209850063e-15 6.93889390390723e-17 4.57966997657877e-16
21 1                3.615                3.615                    0 -1.49186218934005e-16 -1.26634813746307e-16 -4.63518112781003e-15
22 1               5.4225               5.4225                    0 1.64798730217797e-16  1.7650811368064e-16 -4.44089209850063e-15
23 1               5.4225                3.615               1.8075 1.04083408558608e-16 -1.45716771982052e-16 2.77555756156289e-16
24 1                3.615               5.4225               1.8075 -1.37043154602168e-16 9.93129189996722e-17  2.4980018054066e-16
25 1                 7.23                3.615                    0 -2.81025203108243e-15 -6.59194920871187e-17 -4.02455846426619e-15
26 1               9.0375               5.4225                    0 6.62794472083839e-15 2.15973072759112e-16 -3.38618022510673e-15
27 1               9.0375                3.615               1.8075 6.72725763983806e-15 1.30104260698261e-18 6.10622663543836e-16
28 1                 7.23               5.4225               1.8075 -2.1094237467878e-15 1.50053580671994e-16 3.60822483003176e-16
29 1               10.845                3.615                    0 -6.80011602582908e-15 -7.84962372879505e-17 -3.4555691641458e-15
30 1              12.6525               5.4225                    0 6.48092690624935e-15  1.2490009027033e-16 -3.44169137633799e-15
31 1              12.6525                3.615               1.8075 6.46704911844154e-15 -1.04517089427603e-16 5.68989300120393e-16
32 1               10.845               5.4225               1.8075 -6.70297151117438e-15 1.42247325030098e-16 5.43835809718729e-16
33 1                    0                 7.23                    0 -3.3584246494911e-15 -3.37230243729891e-15 -3.44169137633799e-15
34 1               1.8075               9.0375                    0 3.88578058618805e-16 6.72031874593415e-15 -3.5076108684251e-15
35 1               1.8075                 7.23               1.8075 2.22044604925031e-16 -2.15452655716319e-15 4.75314232417645e-16
36 1                    0               9.0375               1.8075 -3.41393580072236e-15 6.73072708679001e-15 5.41233724504764e-16
37 1                3.615                 7.23                    0 -1.02348685082632e-16 -2.71137279295175e-15 -4.05231403988182e-15
38 1               5.4225               9.0375                    0 1.48752538065011e-16 6.62230686954146e-15 -3.3584246494911e-15
39 1               5.4225                 7.23               1.8075  1.6826817716975e-16 -2.10768902331182e-15 3.88578058618805e-16
40 1                3.615               9.0375               1.8075 -1.00613961606655e-16 6.72769132070705e-15 5.27355936696949e-16
41 1                 7.23                 7.23                    0 -2.78076173199082e-15 -2.76341449723105e-15 -3.44169137633799e-15
42 1               9.0375               9.0375                    0 6.13268116844701e-15  6.1777839788224e-15 -2.3037127760972e-15
43 1               9.0375                 7.23               1.8075 6.11316552934227e-15 -2.8124204354274e-15 4.44089209850063e-16
44 1                 7.23               9.0375               1.8075 -2.83974233017403e-15  6.0958182945825e-15  4.9960036108132e-16
45 1               10.845                 7.23                    0 -6.2380656196126e-15 -3.39485384248661e-15 -2.87270207621759e-15
46 1              12.6525               9.0375                    0 5.96744875736022e-15 6.03683769639929e-15 -2.34534613952064e-15
47 1              12.6525                 7.23               1.8075 5.80091530366644e-15 -2.88657986402541e-15 4.57966997657877e-16
48 1               10.845               9.0375               1.8075 -6.20337115009306e-15  6.0437765903032e-15 4.88324658487471e-16
49 1                    0               10.845                    0 -2.76167977375508e-15 -6.84174938925253e-15 -2.74780198594726e-15
50 1               1.8075              12.6525                    0 3.60822483003176e-16 6.51735609924486e-15 -3.48159001628545e-15
51 1               1.8075               10.845               1.8075 3.88578058618805e-16 -6.78623823802127e-15 6.29704621779581e-16
52 1                    0              12.6525               1.8075 -3.44169137633799e-15 6.40459907330637e-15 5.48172618408671e-16
53 1                3.615               10.845                    0 -1.39211558947139e-16 -6.86950496486816e-15 -3.37230243729891e-15
54 1               5.4225              12.6525                    0 1.52655665885959e-16 6.58847976175991e-15 -3.42781358853017e-15
55 1               5.4225               10.845               1.8075 1.94289029309402e-16 -6.74980904502576e-15   5.160802341031e-16
56 1                3.615              12.6525               1.8075 -5.94142790522056e-17 6.42541575501809e-15 5.41233724504764e-16
57 1                 7.23               10.845                    0 -3.40873163029443e-15 -6.30745455865167e-15 -2.84147705365001e-15
58 1               9.0375              12.6525                    0 6.11316552934227e-15 5.90499871222505e-15 -2.31065167000111e-15
59 1               9.0375               10.845               1.8075 6.14439055190985e-15 -6.31916394211451e-15 4.60569082871842e-16
60 1                 7.23              12.6525               1.8075 -2.89351875792931e-15 5.77315972805081e-15 4.57966997657877e-16
61 1               10.845               10.845                    0 -6.31439345255558e-15 -6.30875560125865e-15 -2.27595720048157e-15
62 1              12.6525              12.6525                    0 5.96744875736022e-15 5.93969318174459e-15 -2.38697950294409e-15
63 1              12.6525               10.845               1.8075 5.83560977318598e-15 -6.18949336228525e-15 4.85722573273506e-16
64 1               10.845              12.6525               1.8075 -6.21724893790088e-15 5.82867087928207e-15 4.88324658487471e-16
65 1                    0                    0                3.615 -3.94129173741931e-15 -3.96904731303493e-15 -1.52655665885959e-16
66 1               1.8075               1.8075                3.615 1.66533453693773e-16 3.07913416985883e-16 1.38777878078145e-17
67 1               1.8075                    0               5.4225 3.88578058618805e-16 -4.49987269668384e-15  9.4542429440736e-17
68 1                    0               1.8075               5.4225 -4.49640324973188e-15 4.16333634234434e-16 1.04083408558608e-16
69 1                3.615                    0                3.615 -1.06685493772574e-16 -4.66293670342566e-15 -8.32667268468867e-17
70 1               5.4225               1.8075                3.615 1.20996962449382e-16 1.94289029309402e-16 -2.77555756156289e-17
71 1               5.4225                    0               5.4225 1.50487261540988e-16 -4.52415882534751e-15 2.77555756156289e-17
72 1                3.615               1.8075               5.4225 -1.05818132034585e-16  2.4980018054066e-16 5.55111512312578e-17
73 1                 7.23                    0                3.615 -2.81588988237935e-15 -3.99680288865056e-15 -1.04083408558608e-16
74 1               9.0375               1.8075                3.615 6.70123678769841e-15 4.16333634234434e-16 7.97972798949331e-17
75 1               9.0375                    0               5.4225 6.68085378685568e-15 -3.33066907387547e-15 1.31838984174237e-16
76 1                 7.23               1.8075               5.4225 -2.08166817117217e-15 3.33066907387547e-16 5.68121938382404e-17
77 1               10.845                    0                3.615 -6.69256317031852e-15 -3.30291349825984e-15 -8.67361737988404e-17
78 1              12.6525               1.8075                3.615 6.44796716020579e-15 3.33066907387547e-16 -6.93889390390723e-18
79 1              12.6525                    0               5.4225 6.43929354282591e-15 -3.3584246494911e-15  9.0205620750794e-17
80 1               10.845               1.8075               5.4225 -6.77236045021345e-15 4.60569082871842e-16 9.71445146547012e-17
81 1                    0                3.615                3.615 -4.56579218877096e-15 -1.11022302462516e-16 -1.52655665885959e-16
82 1               1.8075               5.4225                3.615 1.66533453693773e-16 1.08853898117545e-16 -6.93889390390723e-18
83 1               1.8075                3.615               5.4225 8.32667268468867e-17 -3.38271077815477e-17 9.36750677027476e-17
84 1                    0               5.4225               5.4225 -4.49640324973188e-15 1.21430643318376e-16 8.32667268468867e-17
85 1                3.615                3.615                3.615 -1.59594559789866e-16 -1.54390389361936e-16 -9.36750677027476e-17
86 1               5.4225               5.4225                3.615 2.22044604925031e-16 1.60895602396849e-16 -1.15792792021452e-16
87 1               5.4225                3.615               5.4225 2.04697370165263e-16 -1.05384451165591e-16 7.76288755499621e-17
88 1                3.615               5.4225               5.4225 -1.40512601554121e-16 1.14925430283463e-16 9.75781955236954e-17
89 1                 7.23                3.615                3.615 -2.08513761812412e-15 -1.26634813746307e-16 -5.20417042793042e-17
90 1               9.0375               5.4225                3.615 6.60062282609175e-15 2.17274115366095e-16 -1.20129600711394e-16
91 1               9.0375                3.615               5.4225 6.63358257213531e-15 -1.17093834628434e-16 2.02962646689286e-16
92 1                 7.23               5.4225               5.4225 -2.02442229646493e-15 9.84455572616838e-17 1.07119174641568e-16
93 1               10.845                3.615                3.615 -6.80358547278104e-15 -1.33573707650214e-16 -1.23165366794353e-16
94 1              12.6525               5.4225                3.615 6.36990460378684e-15 1.38777878078145e-16 -1.52655665885959e-16
95 1              12.6525                3.615               5.4225 6.50521303491303e-15 -1.49186218934005e-16 2.77555756156289e-17
96 1               10.845               5.4225               5.4225 -6.77929934411736e-15 1.32706345912226e-16 1.83880688453542e-16
97 1                    0                 7.23                3.615 -3.91353616180368e-15 -2.77555756156289e-15 -5.55111512312578e-17
98 1               1.8075               9.0375                3.615 3.60822483003176e-16 6.73766598069392e-15 8.32667268468867e-17
99 1               1.8075                 7.23               5.4225  2.4980018054066e-16 -2.02875910515488e-15  9.8879238130678e-17
100 1                    0               9.0375               5.4225 -3.27515792264421e-15 6.66133814775094e-15 1.31838984174237e-16
101 1                3.615                 7.23                3.615 -1.73472347597681e-16 -1.99146255042137e-15 -1.07552855510562e-16
102 1               5.4225               9.0375                3.615  2.1163626406917e-16 6.67608329729674e-15 -7.02563007770607e-17
103 1               5.4225                 7.23               5.4225 2.02962646689286e-16 -2.03266223297582e-15 1.01915004213637e-16
104 1                3.615               9.0375               5.4225 -1.80411241501588e-16 6.67998642511769e-15  1.9298798670242e-16
105 1                 7.23                 7.23                3.615 -2.17360851539894e-15 -2.15626128063917e-15 -1.45716771982052e-16
106 1               9.0375               9.0375                3.615 6.07500161287078e-15 6.11403289108026e-15 -8.67361737988404e-19
107 1               9.0375                 7.23               5.4225 6.08887940067859e-15 -2.68665298341908e-15 2.37223435339828e-16
108 1                 7.23               9.0375               5.4225 -2.67320887648026e-15 6.07023112331184e-15 1.99059518868339e-16
109 1               10.845                 7.23                3.615 -6.21247844834194e-15 -2.83236975540113e-15 -1.90819582357449e-16
110 1              12.6525               9.0375                3.615 5.78703751585863e-15 6.07847105982273e-15 -7.63278329429795e-17
111 1              12.6525                 7.23               5.4225 5.88418203051333e-15 -2.8275992658422e-15 8.32667268468867e-17
112 1               10.845               9.0375               5.4225 -6.29357677084386e-15 6.02729671728142e-15  1.6826817716975e-16
113 1                    0               10.845                3.615 -3.33066907387547e-15 -6.82787160144471e-15 -9.71445146547012e-17
114 1               1.8075              12.6525                3.615 3.05311331771918e-16 6.40199698809241e-15 -1.47451495458029e-17
115 1               1.8075               10.845               5.4225 4.44089209850063e-16 -6.6942978937945e-15 1.37043154602168e-16
116 1                    0              12.6525               5.4225 -3.2612801348364e-15 6.36990460378684e-15 6.24500451351651e-17
117 1                3.615               10.845                3.615 -1.23165366794353e-16 -6.74460487459783e-15 -8.84708972748172e-17
118 1               5.4225              12.6525                3.615 1.87350135405495e-16 6.38898656202258e-15 -9.0205620750794e-17
119 1               5.4225               10.845               5.4225 1.42247325030098e-16 -6.77236045021345e-15 8.32667268468867e-17
120 1                3.615              12.6525               5.4225 -1.12757025938492e-16 6.39766017940246e-15 7.28583859910259e-17
121 1                 7.23               10.845                3.615 -2.87790624664552e-15 -6.27969898303604e-15 -1.71737624121704e-16
122 1               9.0375              12.6525                3.615 6.11663497629422e-15 5.83907922013793e-15 -7.11236625150491e-17
123 1               9.0375               10.845               5.4225 6.01081684425964e-15 -6.27276008913213e-15 1.83880688453542e-16
124 1                 7.23              12.6525               5.4225 -2.79637424327461e-15 5.85989590184965e-15 1.35308431126191e-16
125 1               10.845               10.845                3.615 -6.25758125871734e-15 -6.30181670735475e-15 -1.71737624121704e-16
126 1              12.6525              12.6525                3.615  5.8564264548977e-15 5.77315972805081e-15 -1.11022302462516e-16
127 1              12.6525               10.845               5.4225 5.89112092441724e-15 -6.21724893790088e-15 6.24500451351651e-17
128 1               10.845              12.6525               5.4225 -6.1478599988618e-15 5.86510007227758e-15 8.23993651088983e-17
129 1                    0                    0                 7.23 -3.3584246494911e-15 -3.38618022510673e-15 -3.33760796777938e-15
130 1               1.8075               1.8075                 7.23 1.66533453693773e-16 2.51534904016637e-16 -2.04003480774873e-15
131 1               1.8075                    0               9.0375 3.60822483003176e-16 -3.53536644404073e-15 6.76281947109558e-15
132 1                    0               1.8075               9.0375 -3.49720252756924e-15 3.67761376907083e-16  6.7168492989822e-15
133 1                3.615                    0                 7.23 -1.15359111152458e-16 -4.02455846426619e-15 -2.7824964554668e-15
134 1               5.4225               1.8075                 7.23 1.81712284108571e-16 3.33066907387547e-16 -2.00880978518114e-15
135 1               5.4225                    0               9.0375 1.35742111995185e-16 -3.38618022510673e-15  6.6266436782314e-15
136 1                3.615               1.8075               9.0375 -4.16333634234434e-17  4.9960036108132e-16 6.70210414943639e-15
137 1                 7.23                    0                 7.23 -2.69142347297802e-15 -3.44169137633799e-15 -2.77902700851484e-15
138 1               9.0375               1.8075                 7.23 6.09278252849954e-15 3.88578058618805e-16 -2.76514922070703e-15
139 1               9.0375                    0               9.0375 6.13528325366097e-15 -2.24820162486594e-15 6.13398221105399e-15
140 1                 7.23               1.8075               9.0375 -2.77729228503887e-15 4.44089209850063e-16 6.13094644497103e-15
141 1               10.845                    0                 7.23 -6.22592255528076e-15 -2.83106871279415e-15 -3.41913997115029e-15
142 1              12.6525               1.8075                 7.23 5.82173198537816e-15 3.22658566531686e-16 -2.81719092498633e-15
143 1              12.6525                    0               9.0375 5.98132654516803e-15 -2.33146835171283e-15 6.11316552934227e-15
144 1               10.845               1.8075               9.0375 -6.25888230132432e-15 3.49546780409327e-16 6.12704331715008e-15
145 1                    0                3.615                 7.23 -3.95516952522712e-15 -5.55111512312578e-17 -2.77555756156289e-15
146 1               1.8075               5.4225                 7.23 2.77555756156289e-16 1.17961196366423e-16 -2.02615701994091e-15
147 1               1.8075                3.615               9.0375 3.88578058618805e-16 1.21430643318376e-17 6.65006244515709e-15
148 1                    0               5.4225               9.0375 -3.38618022510673e-15  1.2490009027033e-16 6.65439925384703e-15
149 1                3.615                3.615                 7.23 -9.0205620750794e-17 -7.11236625150491e-17 -1.99146255042137e-15
150 1               5.4225               5.4225                 7.23 1.64798730217797e-16  9.8879238130678e-17 -2.01488131734706e-15
151 1               5.4225                3.615               9.0375 1.43982048506075e-16 -8.93382590128056e-17 6.65179716863307e-15
152 1                3.615               5.4225               9.0375 -9.54097911787244e-17 1.51354623278976e-16 6.64876140255011e-15
153 1                 7.23                3.615                 7.23 -2.13370987545147e-15 -1.89084858881472e-16 -2.14411821630733e-15
154 1               9.0375               5.4225                 7.23 6.08714467720262e-15 1.96023752785379e-16 -2.70530126078583e-15
155 1               9.0375                3.615               9.0375 6.10102246501043e-15 -8.76035355368288e-17 6.11403289108026e-15
156 1                 7.23               5.4225               9.0375 -2.70269917557187e-15 1.60895602396849e-16 6.13441589192298e-15
157 1               10.845                3.615                 7.23 -6.32350075080446e-15 -1.76941794549634e-16 -2.85839060754078e-15
158 1              12.6525               5.4225                 7.23 5.82173198537816e-15  1.2490009027033e-16 -2.7824964554668e-15
159 1              12.6525                3.615               9.0375 5.89112092441724e-15 -8.50014503228635e-17 6.05765437811101e-15
160 1               10.845               5.4225               9.0375 -6.26582119522823e-15 8.76035355368288e-17  6.1036245502244e-15
161 1                    0                 7.23                 7.23 -3.37230243729891e-15 -2.76167977375508e-15 -2.74780198594726e-15
162 1               1.8075               9.0375                 7.23 3.60822483003176e-16  6.1404874240889e-15 -2.75821032680312e-15
163 1               1.8075                 7.23               9.0375 3.60822483003176e-16 -2.71917904859365e-15 6.16260514840761e-15
164 1                    0               9.0375               9.0375 -2.24820162486594e-15 6.11316552934227e-15  6.1478599988618e-15
165 1                3.615                 7.23                 7.23 -2.02962646689286e-16 -2.13370987545147e-15 -2.13370987545147e-15
166 1               5.4225               9.0375                 7.23 1.80411241501588e-16 6.10666031630736e-15 -2.72481689989057e-15
167 1               5.4225                 7.23               9.0375 1.97758476261356e-16 -2.73522524074643e-15 6.19686593705815e-15
168 1                3.615               9.0375               9.0375 -1.40512601554121e-16 6.09191516676155e-15  6.1109971249973e-15
169 1                 7.23                 7.23                 7.23 -2.14758766325929e-15 -2.15799600411515e-15 -2.26901830657766e-15
170 1               9.0375               9.0375                 7.23 5.47825673713476e-15 5.50341022753642e-15 -3.3957212042246e-15
171 1               9.0375                 7.23               9.0375 5.54070678226992e-15 -3.36102673470506e-15 5.54504359095986e-15
172 1                 7.23               9.0375               9.0375 -3.29597460435593e-15 5.50297654666743e-15 5.59318216741822e-15
173 1               10.845                 7.23                 7.23 -5.72805691767542e-15 -2.7521387946372e-15 -2.81632356324835e-15
174 1              12.6525               9.0375                 7.23 5.37070388162419e-15 5.45397060847108e-15 -3.37924133120282e-15
175 1              12.6525                 7.23               9.0375 5.38805111638396e-15 -3.36883299034696e-15 5.49560397189452e-15
176 1               10.845               9.0375               9.0375 -5.79397640976254e-15 5.56586027267159e-15 5.64218810561457e-15
177 1                    0               10.845                 7.23 -2.78943534937071e-15 -6.25888230132432e-15 -3.41393580072236e-15
178 1               1.8075              12.6525                 7.23 2.77555756156289e-16 5.78877223933461e-15 -2.86923262926564e-15
179 1               1.8075               10.845               9.0375 3.60822483003176e-16 -6.2155142144249e-15 6.13918638148192e-15
180 1                    0              12.6525               9.0375 -2.35922392732846e-15 5.96744875736022e-15 6.09234884763055e-15
181 1                3.615               10.845                 7.23 -3.05311331771918e-16 -6.21638157616289e-15 -2.84060969191202e-15
182 1               5.4225              12.6525                 7.23 1.45716771982052e-16 5.83907922013793e-15 -2.83800760669806e-15
183 1               5.4225               10.845               9.0375 1.07552855510562e-16 -6.25888230132432e-15 6.13051276410204e-15
184 1                3.615              12.6525               9.0375 -1.35308431126191e-16 5.87724313660942e-15 6.02295990859147e-15
185 1                 7.23               10.845                 7.23 -2.74606726247129e-15 -5.72372010898548e-15 -2.85969165014777e-15
186 1               9.0375              12.6525                 7.23 5.50948175970234e-15 5.34988719991247e-15 -3.38618022510673e-15
187 1               9.0375               10.845               9.0375 5.52335954751015e-15 -5.83560977318598e-15  5.5719318048375e-15
188 1                 7.23              12.6525               9.0375 -3.31158711563972e-15 5.31172328344098e-15 5.45744005542304e-15
189 1               10.845               10.845                 7.23 -5.72979164115139e-15 -5.75841457850501e-15 -3.45643652588379e-15
190 1              12.6525              12.6525                 7.23  5.3776427755281e-15 5.34294830600857e-15 -3.40005801291454e-15
191 1              12.6525               10.845               9.0375 5.48172618408671e-15 -5.77662917500277e-15 5.59274848654923e-15
192 1               10.845              12.6525               9.0375 -5.66907631949221e-15  5.3776427755281e-15 5.52509427098613e-15
193 1                    0                    0               10.845 -2.83106871279415e-15 -2.77555756156289e-15 -6.82093270754081e-15
194 1               1.8075               1.8075               10.845 3.33066907387547e-16 4.44956571588051e-16 -6.65439925384703e-15
195 1               1.8075                    0              12.6525 3.33066907387547e-16 -3.4182726094123e-15 6.46357967148958e-15
196 1                    0               1.8075              12.6525 -3.33066907387547e-15 4.09394740330526e-16 6.48786580015326e-15
197 1                3.615                    0               10.845 -1.07986536379556e-16 -3.44169137633799e-15 -6.81052436668494e-15
198 1               5.4225               1.8075               10.845 1.82145964977565e-16 3.88578058618805e-16 -6.71337985203024e-15
199 1               5.4225                    0              12.6525 1.24032728532342e-16 -3.30291349825984e-15 6.50521303491303e-15
200 1                3.615               1.8075              12.6525 -8.89045781438114e-17 3.60822483003176e-16 6.55725473919233e-15
201 1                 7.23                    0               10.845 -3.42260941810224e-15 -2.77555756156289e-15 -6.26929064218018e-15
202 1               9.0375               1.8075               10.845 6.15696729711068e-15 4.16333634234434e-16 -6.25194340742041e-15
203 1               9.0375                    0              12.6525   6.133114849316e-15 -2.3037127760972e-15 5.81826253842621e-15
204 1                 7.23               1.8075              12.6525 -2.84494650060196e-15 3.33066907387547e-16 5.76622083414691e-15
205 1               10.845                    0               10.845 -6.26408647175225e-15 -2.19269047363468e-15 -6.29704621779581e-15
206 1              12.6525               1.8075               10.845 5.87724313660942e-15 3.05311331771918e-16 -6.17561557447743e-15
207 1              12.6525                    0              12.6525 5.99520433297585e-15 -2.3037127760972e-15 5.71070968291565e-15
208 1               10.845               1.8075              12.6525 -6.20337115009306e-15  3.4781205693335e-16 5.82173198537816e-15
209 1                    0                3.615               10.845 -3.34454686168328e-15 -4.16333634234434e-17 -6.70297151117438e-15
210 1               1.8075               5.4225               10.845 3.33066907387547e-16 1.64365049348802e-16 -6.71337985203024e-15
211 1               1.8075                3.615              12.6525 2.77555756156289e-16 -6.85215773010839e-17 6.50174358796107e-15
212 1                    0               5.4225              12.6525 -3.3584246494911e-15 8.93382590128056e-17 6.42194630806614e-15
213 1                3.615                3.615               10.845 -1.16226472890446e-16 -1.23165366794353e-16 -6.82440215449276e-15
214 1               5.4225               5.4225               10.845 1.63931368479808e-16 1.33573707650214e-16 -6.8434841127285e-15
215 1               5.4225                3.615              12.6525 1.45716771982052e-16 -1.38777878078145e-16 6.44102826630188e-15
216 1                3.615               5.4225              12.6525 -1.45716771982052e-16 1.17961196366423e-16 6.49133524710521e-15
217 1                 7.23                3.615               10.845 -2.73392419813945e-15 -1.16226472890446e-16 -6.24500451351651e-15
218 1               9.0375               5.4225               10.845 6.05722069724202e-15 2.20743562318049e-16 -6.2007690648791e-15
219 1               9.0375                3.615              12.6525 6.07847105982273e-15 -1.07552855510562e-16 5.72111802377151e-15
220 1                 7.23               5.4225              12.6525 -2.72178113380761e-15 1.83880688453542e-16 5.83040560275805e-15
221 1               10.845                3.615               10.845 -6.28186738738101e-15 -1.05818132034585e-16 -6.30875560125865e-15
222 1              12.6525               5.4225               10.845 5.82867087928207e-15  1.2490009027033e-16 -6.21031004399697e-15
223 1              12.6525                3.615              12.6525 5.92234594698482e-15 -4.16333634234434e-17 5.71070968291565e-15