ITEM: TIMESTEP
0
ITEM: NUMBER OF ATOMS
256
ITEM: BOX BOUNDS pp pp pp
0.0000000000000000e+00 1.4460000000000001e+01
0.0000000000000000e+00 1.4460000000000001e+01
0.0000000000000000e+00 1.4460000000000001e+01
ITEM: ATOMS id type x y z fx fy fz
1 1                    0                    0                    0 -7.32747196252603e-15 -7.13318293321663e-15 -7.24420523567915e-15
2 1               1.8075               1.8075                    0  7.7715611723761e-16 8.29197821516914e-16 -9.71445146547012e-15
3 1               1.8075                    0               1.8075 8.88178419700125e-16 -9.96425164601078e-15 8.29197821516914e-16
4 1                    0               1.8075               1.8075 -1.02140518265514e-14 8.32667268468867e-16 8.32667268468867e-16
5 1                3.615                    0                    0 3.60822483003176e-16 -8.43249081672326e-15 -8.09942390933571e-15
6 1               5.4225               1.8075                    0 2.08166817117217e-16  7.7715611723761e-16 -9.96425164601078e-15
7 1               5.4225                    0               1.8075 4.16333634234434e-16 -9.99200722162641e-15  7.7715611723761e-16
8 1                3.615               1.8075               1.8075 4.44089209850063e-16 5.55111512312578e-16 4.96130914129367e-16
9 1                 7.23                    0                    0 -6.66654231817887e-15 -6.88338275267597e-15 -6.60582699651968e-15
10 1               9.0375               1.8075                    0 1.28994037673635e-14  7.7715611723761e-16 -7.09154956979319e-15
11 1               9.0375                    0               1.8075 1.31145094783847e-14 -7.04991620636974e-15 8.88178419700125e-16
12 1                 7.23               1.8075               1.8075 -3.80945275324507e-15  7.7715611723761e-16 8.29197821516914e-16
13 1               10.845                    0                    0 -1.42663658664333e-14 -5.63438184997267e-15 -5.4678483962789e-15
14 1              12.6525               1.8075                    0 1.29618538124987e-14 9.43689570931383e-16 -7.07767178198537e-15
15 1              12.6525                    0               1.8075 1.31700206296159e-14 -7.46624984060418e-15 9.99200722162641e-16
16 1               10.845               1.8075               1.8075 -1.37181932480246e-14 1.00613961606655e-15 1.16920362280837e-15
17 1                    0                3.615                    0 -8.43769498715119e-15 3.88578058618805e-16 -8.49320613838245e-15
18 1               1.8075               5.4225                    0  7.7715611723761e-16 2.42861286636753e-16 -1.01862962509358e-14
19 1               1.8075                3.615               1.8075 4.44089209850063e-16 5.82867087928207e-16 8.29197821516914e-16
20 1                    0               5.4225               1.8075 -1.02140518265514e-14 3.60822483003176e-16  7.7715611723761e-16
21 1                3.615                3.615                    0 3.33066907387547e-16 3.03576608295941e-16 -1.04256880906206e-14
22 1               5.4225               5.4225                    0 6.55725473919233e-16 5.55111512312578e-16 -9.99200722162641e-15
23 1               5.4225                3.615               1.8075 4.16333634234434e-16 4.16333634234434e-16  7.7715611723761e-16
24 1                3.615               5.4225               1.8075 5.27355936696949e-16  4.1286418728248e-16 6.66133814775094e-16
25 1                 7.23                3.615                    0 -5.10442382806175e-15 5.55111512312578e-16 -8.43249081672326e-15
26 1               9.0375               5.4225                    0 1.31700206296159e-14 3.12250225675825e-16 -6.82787160144471e-15
27 1               9.0375                3.615               1.8075  1.2938435045573e-14  1.2490009027033e-16 9.99200722162641e-16
28 1                 7.23               5.4225               1.8075 -3.69843045078255e-15 3.08780778723872e-16 9.99200722162641e-16
29 1               10.845                3.615                    0 -1.39332989590457e-14 8.04911692853238e-16  -7.105427357601e-15
30 1              12.6525               5.4225                    0 1.28785870856518e-14 2.77555756156289e-16 -7.32747196252603e-15
31 1              12.6525                3.615               1.8075 1.26010313294955e-14 6.76542155630955e-16 1.22124532708767e-15
32 1               10.845               5.4225               1.8075 -1.37945210809676e-14 4.16333634234434e-16  1.3392065234541e-15
33 1                    0                 7.23                    0 -6.88338275267597e-15 -6.60582699651968e-15 -6.7168492989822e-15
34 1               1.8075               9.0375                    0 8.88178419700125e-16 1.28820565326038e-14 -6.86950496486816e-15
35 1               1.8075                 7.23               1.8075  7.7715611723761e-16 -3.60822483003176e-15 1.05124242644195e-15
36 1                    0               9.0375               1.8075 -6.88338275267597e-15 1.30451205393456e-14 8.88178419700125e-16
37 1                3.615                 7.23                    0 3.19189119579733e-16 -5.11136272196566e-15 -8.65453542164829e-15
38 1               5.4225               9.0375                    0 4.96130914129367e-16 1.33990041284449e-14 -6.82787160144471e-15
39 1               5.4225                 7.23               1.8075 3.05311331771918e-16 -3.72618602639818e-15 8.88178419700125e-16
40 1                3.615               9.0375               1.8075 5.55111512312578e-16 1.30633351358433e-14 1.11022302462516e-15
41 1                 7.23                 7.23                    0 -5.33080524167673e-15 -5.69596453336985e-15  -7.105427357601e-15
42 1               9.0375               9.0375                    0 1.21569421196455e-14  1.2417150641042e-14 -3.66373598126302e-15
43 1               9.0375                 7.23               1.8075 1.15532583500055e-14 -5.68989300120393e-15 8.88178419700125e-16
44 1                 7.23               9.0375               1.8075 -5.37070388162419e-15 1.19973475598556e-14 9.99200722162641e-16
45 1               10.845                 7.23                    0 -1.25732757538799e-14 -6.90766888133965e-15 -5.77315972805081e-15
46 1              12.6525               9.0375                    0 1.14908083048704e-14 1.20459198171829e-14 -4.32986979603811e-15
47 1              12.6525                 7.23               1.8075 1.09634523681734e-14 -5.49560397189452e-15 9.99200722162641e-16
48 1               10.845               9.0375               1.8075 -1.27398092075737e-14 1.22263310586845e-14 8.95117313604032e-16
49 1                    0               10.845                    0 -5.6621374255883e-15 -1.42663658664333e-14 -5.44009282066327e-15
50 1               1.8075              12.6525                    0 8.88178419700125e-16 1.28785870856518e-14 -7.37604421985338e-15
51 1               1.8075               10.845               1.8075 8.88178419700125e-16  -1.346145417358e-14 1.16920362280837e-15
52 1                    0              12.6525               1.8075  -7.105427357601e-15 1.26565424807268e-14 1.08246744900953e-15
53 1                3.615               10.845                    0 3.60822483003176e-16 -1.39159517242859e-14 -6.87817858224804e-15
54 1               5.4225              12.6525                    0 3.67761376907083e-16 1.29340982368831e-14 -7.43849426498855e-15
55 1               5.4225               10.845               1.8075 2.98372437868011e-16 -1.39402378529496e-14 1.11716191852906e-15
56 1                3.615              12.6525               1.8075 3.88578058618805e-16 1.29488433864289e-14 1.22124532708767e-15
57 1                 7.23               10.845                    0 -6.93108764826533e-15 -1.25177646026486e-14 -5.55111512312578e-15
58 1               9.0375              12.6525                    0 1.22957199977236e-14 1.18793863634892e-14 -4.66293670342566e-15
59 1               9.0375               10.845               1.8075 1.16365250768524e-14 -1.2712053631958e-14 7.84095011141517e-16
60 1                 7.23              12.6525               1.8075 -5.49560397189452e-15 1.09773301559812e-14 9.99200722162641e-16
61 1               10.845               10.845                    0 -1.27675647831893e-14 -1.27779731240452e-14 -4.21884749357559e-15
62 1              12.6525              12.6525                    0 1.17128529097954e-14 1.18238752122579e-14 -4.82947015711943e-15
63 1              12.6525               10.845               1.8075 1.11854969730985e-14 -1.23234755733392e-14  7.7715611723761e-16
64 1               10.845              12.6525               1.8075 -1.24344978758018e-14 1.12826414877532e-14 8.95117313604032e-16
65 1                    0                    0                3.615 -8.54871728961371e-15 -8.54871728961371e-15 1.94289029309402e-16
66 1               1.8075               1.8075                3.615  4.9960036108132e-16 3.85108611666851e-16  7.7715611723761e-16
67 1               1.8075                    0               5.4225  7.7715611723761e-16 -9.96425164601078e-15 2.15105711021124e-16
68 1                    0               1.8075               5.4225 -9.99200722162641e-15 8.88178419700125e-16 3.60822483003176e-16
69 1                3.615                    0                3.615 3.19189119579733e-16 -9.98680305119848e-15 3.72965547335014e-16
70 1               5.4225               1.8075                3.615 4.23272528138341e-16 5.55111512312578e-16 3.33066907387547e-16
71 1               5.4225                    0               5.4225 5.44703171456717e-16 -9.76996261670138e-15 5.27355936696949e-16
72 1                3.615               1.8075               5.4225 5.27355936696949e-16 6.66133814775094e-16 -2.15105711021124e-16
73 1                 7.23                    0                3.615 -5.09488284894388e-15 -8.32667268468867e-15 4.16333634234434e-16
74 1               9.0375               1.8075                3.615 1.30520594332495e-14 9.99200722162641e-16 1.52655665885959e-16
75 1               9.0375                    0               5.4225 1.30589983271534e-14 -7.04991620636974e-15 5.30825383648903e-16
76 1                 7.23               1.8075               5.4225 -3.96904731303493e-15  7.7715611723761e-16 3.40005801291454e-16
77 1               10.845                    0                3.615 -1.39055433834301e-14 -6.93889390390723e-15 6.31439345255558e-16
78 1              12.6525               1.8075                3.615 1.28785870856518e-14 8.60422844084496e-16 4.30211422042248e-16
79 1              12.6525                    0               5.4225 1.31006316905768e-14 -7.43849426498855e-15 2.77555756156289e-17
80 1               10.845               1.8075               5.4225 -1.38500322321988e-14 1.00613961606655e-15  4.9960036108132e-16
81 1                    0                3.615                3.615 -1.02140518265514e-14 2.77555756156289e-16 3.88578058618805e-16
82 1               1.8075               5.4225                3.615  4.9960036108132e-16 4.78783679369599e-16 6.38378239159465e-16
83 1               1.8075                3.615               5.4225 5.55111512312578e-16 5.82867087928207e-16 -1.94289029309402e-16
84 1                    0               5.4225               5.4225 -9.99200722162641e-15 5.27355936696949e-16 4.71844785465692e-16
85 1                3.615                3.615                3.615 1.38777878078145e-16 2.34187669256869e-16 -1.73472347597681e-17
86 1               5.4225               5.4225                3.615 4.71844785465692e-16  4.9960036108132e-16 4.57966997657877e-16
87 1               5.4225                3.615               5.4225  4.9960036108132e-16 1.66533453693773e-16 5.27355936696949e-16
88 1                3.615               5.4225               5.4225 1.38777878078145e-16 4.71844785465692e-16 2.04697370165263e-16
89 1                 7.23                3.615                3.615 -3.52582546492286e-15 3.60822483003176e-16 1.37043154602168e-16
90 1               9.0375               5.4225                3.615 1.29236898960272e-14 6.69603261727048e-16 1.38777878078145e-16
91 1               9.0375                3.615               5.4225 1.28473620630842e-14 2.63677968348475e-16 5.58580959264532e-16
92 1                 7.23               5.4225               5.4225 -3.6498581934552e-15 3.53883589099269e-16  5.3776427755281e-16
93 1               10.845                3.615                3.615 -1.36913050341469e-14 2.77555756156289e-16 1.64798730217797e-16
94 1              12.6525               5.4225                3.615 1.26565424807268e-14 2.77555756156289e-16 3.05311331771918e-16
95 1              12.6525                3.615               5.4225 1.29063426612674e-14 1.76941794549634e-16 2.22044604925031e-16
96 1               10.845               5.4225               5.4225 -1.37667655053519e-14 5.68989300120393e-16 4.71844785465692e-16
97 1                    0                 7.23                3.615 -8.10462807976364e-15 -5.10702591327572e-15 1.11022302462516e-16
98 1               1.8075               9.0375                3.615 8.32667268468867e-16 1.31075705844808e-14  3.7470027081099e-16
99 1               1.8075                 7.23               5.4225  7.7715611723761e-16 -3.5527136788005e-15 4.71844785465692e-16
100 1                    0               9.0375               5.4225  -7.105427357601e-15 1.30451205393456e-14 6.10622663543836e-16
101 1                3.615                 7.23                3.615 2.28983498828939e-16 -3.4104663537704e-15 4.42354486374086e-16
102 1               5.4225               9.0375                3.615 4.78783679369599e-16 1.28785870856518e-14 1.52655665885959e-16
103 1               5.4225                 7.23               5.4225 5.06539254985228e-16 -3.63944985259934e-15 6.38378239159465e-16
104 1                3.615               9.0375               5.4225 1.66533453693773e-16 1.29835378559484e-14  2.1163626406917e-16
105 1                 7.23                 7.23                3.615 -3.87016807490426e-15 -4.01935429383826e-15 4.44089209850063e-16
106 1               9.0375               9.0375                3.615 1.18724474695853e-14 1.18516307878735e-14 -4.16333634234434e-17
107 1               9.0375                 7.23               5.4225 1.16573417585641e-14 -5.43662337371131e-15 6.69603261727048e-16
108 1                 7.23               9.0375               5.4225 -5.40539835114373e-15 1.15706055847653e-14  2.1163626406917e-16
109 1               10.845                 7.23                3.615 -1.22922505507717e-14 -5.38458166943201e-15 6.38378239159465e-16
110 1              12.6525               9.0375                3.615 1.11022302462516e-14 1.18793863634892e-14 -1.94289029309402e-16
111 1              12.6525                 7.23               5.4225 1.13242748511766e-14 -5.55111512312578e-15 4.16333634234434e-16
112 1               10.845               9.0375               5.4225 -1.27675647831893e-14 1.19348975147204e-14 2.35922392732846e-16
113 1                    0               10.845                3.615 -6.77236045021345e-15 -1.38777878078145e-14  4.9960036108132e-16
114 1               1.8075              12.6525                3.615 8.32667268468867e-16 1.30728761149612e-14 8.46545056276682e-16
115 1               1.8075               10.845               5.4225  7.7715611723761e-16 -1.34336985979644e-14 5.55111512312578e-16
116 1                    0              12.6525               5.4225 -6.66133814775094e-15 1.27675647831893e-14 5.55111512312578e-17
117 1                3.615               10.845                3.615 3.19189119579733e-16 -1.36765598846011e-14 4.14598910758457e-16
118 1               5.4225              12.6525                3.615 6.10622663543836e-16 1.27987898057569e-14 8.29197821516914e-16
119 1               5.4225               10.845               5.4225 4.92661467177413e-16 -1.37667655053519e-14 4.85722573273506e-16
120 1                3.615              12.6525               5.4225 1.94289029309402e-16 1.30598656888914e-14 3.33066907387547e-16
121 1                 7.23               10.845                3.615 -5.47305256670683e-15 -1.24032728532342e-14 5.41233724504764e-16
122 1               9.0375              12.6525                3.615 1.17614251671228e-14 1.13763165554559e-14 3.71230823859037e-16
123 1               9.0375               10.845               5.4225  1.1816936318354e-14 -1.25177646026486e-14 5.86336534880161e-16
124 1                 7.23              12.6525               5.4225 -5.64132074387658e-15 1.13242748511766e-14 3.33066907387547e-16
125 1               10.845               10.845                3.615 -1.26045007764475e-14 -1.25108257087447e-14 5.13478148889135e-16
126 1              12.6525              12.6525                3.615 1.12687636999453e-14 1.12132525487141e-14 3.60822483003176e-16
127 1              12.6525               10.845               5.4225 1.12132525487141e-14 -1.24344978758018e-14 4.71844785465692e-16
128 1               10.845              12.6525               5.4225 -1.25455201782643e-14 1.14352971536391e-14 6.10622663543836e-16
129 1                    0                    0                 7.23 -6.77236045021345e-15 -6.88338275267597e-15 -6.57807142090405e-15
130 1               1.8075               1.8075                 7.23  7.7715611723761e-16 6.07153216591882e-16 -3.38618022510673e-15
131 1               1.8075                    0               9.0375 8.88178419700125e-16 -7.14706072102445e-15 1.31145094783847e-14
132 1                    0               1.8075               9.0375  -7.105427357601e-15 1.11022302462516e-15 1.31006316905768e-14
133 1                3.615                    0                 7.23 1.94289029309402e-16 -7.9884016068732e-15 -5.2059051514064e-15
134 1               5.4225               1.8075                 7.23 3.05311331771918e-16 8.88178419700125e-16 -3.30291349825984e-15
135 1               5.4225                    0               9.0375 3.71230823859037e-16  -7.105427357601e-15 1.31006316905768e-14
136 1                3.615               1.8075               9.0375 5.55111512312578e-16 1.22124532708767e-15 1.30772129236512e-14
137 1                 7.23                    0                 7.23 -5.48779771625263e-15 -6.32827124036339e-15 -5.80091530366644e-15
138 1               9.0375               1.8075                 7.23 1.15558604352195e-14  7.7715611723761e-16 -5.25968157916168e-15
139 1               9.0375                    0               9.0375 1.20320420293751e-14 -3.71924713249427e-15 1.24067423001861e-14
140 1                 7.23               1.8075               9.0375 -5.33253996515271e-15 9.99200722162641e-16 1.17926501896903e-14
141 1               10.845                    0                 7.23 -1.25455201782643e-14 -5.16253706450698e-15 -7.02216063075412e-15
142 1              12.6525               1.8075                 7.23 1.10189635194047e-14 8.60422844084496e-16 -4.96824803519758e-15
143 1              12.6525                    0               9.0375 1.17683640610267e-14 -4.21884749357559e-15  1.2267964422108e-14
144 1               10.845               1.8075               9.0375 -1.26842980563424e-14 7.84095011141517e-16 1.21569421196455e-14
145 1                    0                3.615                 7.23 -8.32667268468867e-15 1.66533453693773e-16 -5.16253706450698e-15
146 1               1.8075               5.4225                 7.23 7.21644966006352e-16  2.0122792321331e-16 -3.24740234702858e-15
147 1               1.8075                3.615               9.0375 9.99200722162641e-16 4.44089209850063e-16  1.3239409568655e-14
148 1                    0               5.4225               9.0375  -7.105427357601e-15 3.88578058618805e-16 1.31006316905768e-14
149 1                3.615                3.615                 7.23 4.85722573273506e-17  2.0643209364124e-16 -3.62210261783957e-15
150 1               5.4225               5.4225                 7.23 5.34294830600857e-16 6.10622663543836e-16 -3.60128593612785e-15
151 1               5.4225                3.615               9.0375 4.64905891561784e-16 4.16333634234434e-16 1.28065960613988e-14
152 1                3.615               5.4225               9.0375 1.66533453693773e-16 4.40619762898109e-16 1.34727298761739e-14
153 1                 7.23                3.615                 7.23 -3.95343480175114e-15 4.71844785465692e-16 -3.65506236388313e-15
154 1               9.0375               5.4225                 7.23  1.1740608485411e-14 3.36536354339501e-16 -5.29437604868122e-15
155 1               9.0375                3.615               9.0375 1.18030585305462e-14 4.02455846426619e-16 1.18004564453322e-14
156 1                 7.23               5.4225               9.0375 -5.33253996515271e-15 4.47558656802016e-16 1.19522447494802e-14
157 1               10.845                3.615                 7.23 -1.23477617020029e-14 3.60822483003176e-16 -5.37417332857615e-15
158 1              12.6525               5.4225                 7.23 1.11577413974828e-14 2.22044604925031e-16 -5.55111512312578e-15
159 1              12.6525                3.615               9.0375 1.14630527292547e-14 6.21031004399697e-16 1.17683640610267e-14
160 1               10.845               5.4225               9.0375 -1.27675647831893e-14 5.13478148889135e-16 1.21430643318376e-14
161 1                    0                 7.23                 7.23 -6.66133814775094e-15 -5.27355936696949e-15 -5.52335954751015e-15
162 1               1.8075               9.0375                 7.23 8.88178419700125e-16 1.14352971536391e-14 -5.23192600354605e-15
163 1               1.8075                 7.23               9.0375  7.7715611723761e-16 -5.16253706450698e-15  1.2115308756222e-14
164 1                    0               9.0375               9.0375 -3.77475828372553e-15 1.21291865440298e-14 1.25455201782643e-14
165 1                3.615                 7.23                 7.23 2.63677968348475e-16 -3.84501458450259e-15 -3.59955121265187e-15
166 1               5.4225               9.0375                 7.23 4.71844785465692e-16 1.18299467444238e-14 -5.79397640976254e-15
167 1               5.4225                 7.23               9.0375 4.71844785465692e-16 -5.44703171456717e-15 1.19800003250958e-14
168 1                3.615               9.0375               9.0375 4.16333634234434e-16 1.18837231721791e-14 1.22167900795667e-14
169 1                 7.23                 7.23                 7.23 -4.22838847269347e-15 -4.07920225375946e-15 -3.97598620693884e-15
170 1               9.0375               9.0375                 7.23 1.04465047723323e-14 1.06503347807596e-14 -7.37604421985338e-15
171 1               9.0375                 7.23               9.0375 1.04881381357558e-14 -7.48012762841199e-15 1.07101827406808e-14
172 1                 7.23               9.0375               9.0375 -7.35175809118971e-15 1.05818132034585e-14 1.04603825601401e-14
173 1               10.845                 7.23                 7.23 -1.09148801108461e-14 -5.91540705308091e-15 -5.64479019082853e-15
174 1              12.6525               9.0375                 7.23 1.02140518265514e-14 1.07136521876328e-14 -7.38298311375729e-15
175 1              12.6525                 7.23               9.0375 1.02140518265514e-14 -7.38298311375729e-15 1.03805852802452e-14
176 1               10.845               9.0375               9.0375 -1.15463194561016e-14 1.08663078535187e-14 1.08107967022875e-14
177 1                    0               10.845                 7.23 -5.32907051820075e-15 -1.2267964422108e-14 -7.21644966006352e-15
178 1               1.8075              12.6525                 7.23 6.66133814775094e-16 1.12687636999453e-14 -5.02375918642883e-15
179 1               1.8075               10.845               9.0375 5.55111512312578e-16 -1.26010313294955e-14  1.2490009027033e-14
180 1                    0              12.6525               9.0375 -3.88578058618805e-15 1.16573417585641e-14 1.21569421196455e-14
181 1                3.615               10.845                 7.23 3.46944695195361e-16 -1.22818422099158e-14 -5.36896915814822e-15
182 1               5.4225              12.6525                 7.23  4.9960036108132e-16 1.13797860024079e-14 -5.68989300120393e-15
183 1               5.4225               10.845               9.0375 2.77555756156289e-16 -1.26287869051112e-14 1.21708199074533e-14
184 1                3.615              12.6525               9.0375 2.63677968348475e-16 1.13112644251068e-14 1.16547396733502e-14
185 1                 7.23               10.845                 7.23 -5.7965784949765e-15 -1.10189635194047e-14 -5.63785129692462e-15
186 1               9.0375              12.6525                 7.23 1.05020159235636e-14 1.03805852802452e-14 -7.16093850883226e-15
187 1               9.0375               10.845               9.0375 1.08697773004707e-14 -1.16018306073329e-14 1.10328413072125e-14
188 1                 7.23              12.6525               9.0375 -7.23379689482329e-15 1.01030295240889e-14  1.0547118733939e-14
189 1               10.845               10.845                 7.23 -1.11508025035789e-14 -1.11161080340594e-14 -6.98746616123458e-15
190 1              12.6525              12.6525                 7.23 1.01030295240889e-14 9.93649607039515e-15 -6.99440505513849e-15
191 1              12.6525               10.845               9.0375  1.0325074129014e-14 -1.14630527292547e-14  1.0991207943789e-14
192 1               10.845              12.6525               9.0375 -1.13242748511766e-14 1.06581410364015e-14 1.06303854607859e-14
193 1                    0                    0               10.845 -5.44009282066327e-15 -5.6621374255883e-15 -1.42663658664333e-14
194 1               1.8075               1.8075               10.845 9.43689570931383e-16 7.73686670285656e-16 -1.32116539930394e-14
195 1               1.8075                    0              12.6525 6.66133814775094e-16 -7.02216063075412e-15 1.29340982368831e-14
196 1                    0               1.8075              12.6525 -7.21644966006352e-15 8.88178419700125e-16 1.26565424807268e-14
197 1                3.615                    0               10.845  2.4980018054066e-16 -7.10022318717307e-15 -1.39159517242859e-14
198 1               5.4225               1.8075               10.845 3.08780778723872e-16 9.99200722162641e-16 -1.34475763857722e-14
199 1               5.4225                    0              12.6525 3.33066907387547e-16 -6.66133814775094e-15 1.29063426612674e-14
200 1                3.615               1.8075              12.6525 3.33066907387547e-16 9.99200722162641e-16 1.27823099327351e-14
201 1                 7.23                    0               10.845  -7.105427357601e-15 -5.21804821573824e-15 -1.25177646026486e-14
202 1               9.0375               1.8075               10.845 1.16226472890446e-14  7.7715611723761e-16 -1.25316423904565e-14
203 1               9.0375                    0              12.6525 1.22124532708767e-14 -4.05231403988182e-15 1.14908083048704e-14
204 1                 7.23               1.8075              12.6525 -5.5571866552917e-15  7.7715611723761e-16 1.10050857315969e-14
205 1               10.845                    0               10.845 -1.28508315100362e-14 -4.27435864480685e-15 -1.29063426612674e-14
206 1              12.6525               1.8075               10.845 1.14630527292547e-14 6.38378239159465e-16 -1.19904086659517e-14
207 1              12.6525                    0              12.6525 1.17683640610267e-14 -4.77395900588817e-15 1.14352971536391e-14
208 1               10.845               1.8075              12.6525 -1.2490009027033e-14  4.5102810375397e-16 1.10328413072125e-14
209 1                    0                3.615               10.845 -6.77236045021345e-15 2.22044604925031e-16 -1.38500322321988e-14
210 1               1.8075               5.4225               10.845 8.88178419700125e-16 2.46330733588707e-16 -1.3614109839466e-14
211 1               1.8075                3.615              12.6525 8.88178419700125e-16 3.46944695195361e-16 1.28924648734596e-14
212 1                    0               5.4225              12.6525 -6.66133814775094e-15 4.16333634234434e-16   1.301736496373e-14
213 1                3.615                3.615               10.845 8.32667268468867e-17 2.75821032680312e-16 -1.38292155504871e-14
214 1               5.4225               5.4225               10.845 5.65519853168439e-16 5.79397640976254e-16 -1.38153377626793e-14
215 1               5.4225                3.615              12.6525  4.9960036108132e-16 2.63677968348475e-16 1.28516988717742e-14
216 1                3.615               5.4225              12.6525 2.08166817117217e-16 4.85722573273506e-16 1.29488433864289e-14
217 1                 7.23                3.615               10.845 -5.49126716320458e-15 3.19189119579733e-16 -1.25281729435045e-14
218 1               9.0375               5.4225               10.845 1.17579557201708e-14 1.80411241501588e-16 -1.22055143769728e-14
219 1               9.0375                3.615              12.6525 1.18689780226333e-14  4.9960036108132e-16 1.11620782061728e-14
220 1                 7.23               5.4225              12.6525 -5.63004504128273e-15 5.96744875736022e-16 1.12132525487141e-14
221 1               10.845                3.615               10.845 -1.26634813746307e-14  3.2612801348364e-16 -1.28022592527088e-14
222 1              12.6525               5.4225               10.845 1.10467190950203e-14 3.33066907387547e-16 -1.25455201782643e-14
223 1              12.6525                3.615              12.6525 1.14630527292547e-14 3.43475248243408e-16 1.12410081243297e-14
224 1               10.845               5.4225              12.6525 -1.2490009027033e-14 4.30211422042248e-16 1.11993747609063e-14