LAMMPS data file: 4000 Cu atoms, FCC, MB velocities at T=100 K (seed 42)

4000 atoms
1 atom types

0.0 36.1500000000 xlo xhi
0.0 36.1500000000 ylo yhi
0.0 36.1500000000 zlo zhi

Masses

1 63.546

Atoms # atomic

1 1 0.0000000000 0.0000000000 0.0000000000
2 1 1.8075000000 1.8075000000 0.0000000000
3 1 1.8075000000 0.0000000000 1.8075000000
4 1 0.0000000000 1.8075000000 1.8075000000
5 1 3.6150000000 0.0000000000 0.0000000000
6 1 5.4225000000 1.8075000000 0.0000000000
7 1 5.4225000000 0.0000000000 1.8075000000
8 1 3.6150000000 1.8075000000 1.8075000000
9 1 7.2300000000 0.0000000000 0.0000000000
10 1 9.0375000000 1.8075000000 0.0000000000
11 1 9.0375000000 0.0000000000 1.8075000000
12 1 7.2300000000 1.8075000000 1.8075000000
13 1 10.8450000000 0.0000000000 0.0000000000
14 1 12.6525000000 1.8075000000 0.0000000000
15 1 12.6525000000 0.0000000000 1.8075000000
16 1 10.8450000000 1.8075000000 1.8075000000
17 1 14.4600000000 0.0000000000 0.0000000000
18 1 16.2675000000 1.8075000000 0.0000000000
19 1 16.2675000000 0.0000000000 1.8075000000
20 1 14.4600000000 1.8075000000 1.8075000000
21 1 18.0750000000 0.0000000000 0.0000000000
22 1 19.8825000000 1.8075000000 0.0000000000
23 1 19.8825000000 0.0000000000 1.8075000000
24 1 18.0750000000 1.8075000000 1.8075000000
25 1 21.6900000000 0.0000000000 0.0000000000
26 1 23.4975000000 1.8075000000 0.0000000000
27 1 23.4975000000 0.0000000000 1.8075000000
28 1 21.6900000000 1.8075000000 1.8075000000
29 1 25.3050000000 0.0000000000 0.0000000000
30 1 27.1125000000 1.8075000000 0.0000000000
31 1 27.1125000000 0.0000000000 1.8075000000
32 1 25.3050000000 1.8075000000 1.8075000000
33 1 28.9200000000 0.0000000000 0.0000000000
34 1 30.7275000000 1.8075000000 0.0000000000
35 1 30.7275000000 0.0000000000 1.8075000000
36 1 28.9200000000 1.8075000000 1.8075000000
37 1 32.5350000000 0.0000000000 0.0000000000
38 1 34.3425000000 1.8075000000 0.0000000000
39 1 34.3425000000 0.0000000000 1.8075000000
40 1 32.5350000000 1.8075000000 1.8075000000
41 1 0.0000000000 3.6150000000 0.0000000000
42 1 1.8075000000 5.4225000000 0.0000000000
43 1 1.8075000000 3.6150000000 1.8075000000
44 1 0.0000000000 5.4225000000 1.8075000000
45 1 3.6150000000 3.6150000000 0.0000000000
46 1 5.4225000000 5.4225000000 0.0000000000
47 1 5.4225000000 3.6150000000 1.8075000000
48 1 3.6150000000 5.4225000000 1.8075000000
49 1 7.2300000000 3.6150000000 0.0000000000
50 1 9.0375000000 5.4225000000 0.0000000000
51 1 9.0375000000 3.6150000000 1.8075000000
52 1 7.2300000000 5.4225000000 1.8075000000
53 1 10.8450000000 3.6150000000 0.0000000000
54 1 12.6525000000 5.4225000000 0.0000000000
55 1 12.6525000000 3.6150000000 1.8075000000
56 1 10.8450000000 5.4225000000 1.8075000000
57 1 14.4600000000 3.6150000000 0.0000000000
58 1 16.2675000000 5.4225000000 0.0000000000
59 1 16.2675000000 3.6150000000 1.8075000000
60 1 14.4600000000 5.4225000000 1.8075000000
61 1 18.0750000000 3.6150000000 0.0000000000
62 1 19.8825000000 5.4225000000 0.0000000000
63 1 19.8825000000 3.6150000000 1.8075000000
64 1 18.0750000000 5.4225000000 1.8075000000
65 1 21.6900000000 3.6150000000 0.0000000000
66 1 23.4975000000 5.4225000000 0.0000000000
67 1 23.4975000000 3.6150000000 1.8075000000
68 1 21.6900000000 5.4225000000 1.8075000000
69 1 25.3050000000 3.6150000000 0.0000000000
70 1 27.1125000000 5.4225000000 0.0000000000
71 1 27.1125000000 3.6150000000 1.8075000000
72 1 25.3050000000 5.4225000000 1.8075000000
73 1 28.9200000000 3.6150000000 0.0000000000
74 1 30.7275000000 5.4225000000 0.0000000000
75 1 30.7275000000 3.6150000000 1.8075000000
76 1 28.9200000000 5.4225000000 1.8075000000
77 1 32.5350000000 3.6150000000 0.0000000000
78 1 34.3425000000 5.4225000000 0.0000000000
79 1 34.3425000000 3.6150000000 1.8075000000
80 1 32.5350000000 5.4225000000 1.8075000000
81 1 0.0000000000 7.2300000000 0.0000000000
82 1 1.8075000000 9.0375000000 0.0000000000
83 1 1.8075000000 7.2300000000 1.8075000000
84 1 0.0000000000 9.0375000000 1.8075000000
85 1 3.6150000000 7.2300000000 0.0000000000
86 1 5.4225000000 9.0375000000 0.0000000000
87 1 5.4225000000 7.2300000000 1.8075000000
88 1 3.6150000000 9.0375000000 1.8075000000
89 1 7.2300000000 7.2300000000 0.0000000000
90 1 9.0375000000 9.0375000000 0.0000000000
91 1 9.0375000000 7.2300000000 1.8075000000
92 1 7.2300000000 9.0375000000 1.8075000000
93 1 10.8450000000 7.2300000000 0.0000000000
94 1 12.6525000000 9.0375000000 0.0000000000
95 1 12.6525000000 7.2300000000 1.8075000000
96 1 10.8450000000 9.0375000000 1.8075000000
97 1 14.4600000000 7.2300000000 0.0000000000
98 1 16.2675000000 9.0375000000 0.0000000000
99 1 16.2675000000 7.2300000000 1.8075000000
100 1 14.4600000000 9.0375000000 1.8075000000
101 1 18.0750000000 7.2300000000 0.0000000000
102 1 19.8825000000 9.0375000000 0.0000000000
103 1 19.8825000000 7.2300000000 1.8075000000
104 1 18.0750000000 9.0375000000 1.8075000000
105 1 21.6900000000 7.2300000000 0.0000000000
106 1 23.4975000000 9.0375000000 0.0000000000
107 1 23.4975000000 7.2300000000 1.8075000000
108 1 21.6900000000 9.0375000000 1.8075000000
109 1 25.3050000000 7.2300000000 0.0000000000
110 1 27.1125000000 9.0375000000 0.0000000000
111 1 27.1125000000 7.2300000000 1.8075000000
112 1 25.3050000000 9.0375000000 1.8075000000
113 1 28.9200000000 7.2300000000 0.0000000000
114 1 30.7275000000 9.0375000000 0.0000000000
115 1 30.7275000000 7.2300000000 1.8075000000
116 1 28.9200000000 9.0375000000 1.8075000000
117 1 32.5350000000 7.2300000000 0.0000000000
118 1 34.3425000000 9.0375000000 0.0000000000
119 1 34.3425000000 7.2300000000 1.8075000000
120 1 32.5350000000 9.0375000000 1.8075000000
121 1 0.0000000000 10.8450000000 0.0000000000
122 1 1.8075000000 12.6525000000 0.0000000000
123 1 1.8075000000 10.8450000000 1.8075000000
124 1 0.0000000000 12.6525000000 1.8075000000
125 1 3.6150000000 10.8450000000 0.0000000000
126 1 5.4225000000 12.6525000000 0.0000000000
127 1 5.4225000000 10.8450000000 1.8075000000
128 1 3.6150000000 12.6525000000 1.8075000000
129 1 7.2300000000 10.8450000000 0.0000000000
130 1 9.0375000000 12.6525000000 0.0000000000
131 1 9.0375000000 10.8450000000 1.8075000000
132 1 7.2300000000 12.6525000000 1.8075000000
133 1 10.8450000000 10.8450000000 0.0000000000
134 1 12.6525000000 12.6525000000 0.0000000000
135 1 12.6525000000 10.8450000000 1.8075000000
136 1 10.8450000000 12.6525000000 1.8075000000
137 1 14.4600000000 10.8450000000 0.0000000000
138 1 16.2675000000 12.6525000000 0.0000000000
139 1 16.2675000000 10.8450000000 1.8075000000
140 1 14.4600000000 12.6525000000 1.8075000000
141 1 18.0750000000 10.8450000000 0.0000000000
142 1 19.8825000000 12.6525000000 0.0000000000
143 1 19.8825000000 10.8450000000 1.8075000000
144 1 18.0750000000 12.6525000000 1.8075000000
145 1 21.6900000000 10.8450000000 0.0000000000
146 1 23.4975000000 12.6525000000 0.0000000000
147 1 23.4975000000 10.8450000000 1.8075000000
148 1 21.6900000000 12.6525000000 1.8075000000
149 1 25.3050000000 10.8450000000 0.0000000000
150 1 27.1125000000 12.6525000000 0.0000000000
151 1 27.1125000000 10.8450000000 1.8075000000
152 1 25.3050000000 12.6525000000 1.8075000000
153 1 28.9200000000 10.8450000000 0.0000000000
154 1 30.7275000000 12.6525000000 0.0000000000
155 1 30.7275000000 10.8450000000 1.8075000000
156 1 28.9200000000 12.6525000000 1.8075000000
157 1 32.5350000000 10.8450000000 0.0000000000
158 1 34.3425000000 12.6525000000 0.0000000000
159 1 34.3425000000 10.8450000000 1.8075000000
160 1 32.5350000000 12.6525000000 1.8075000000
161 1 0.0000000000 14.4600000000 0.0000000000
162 1 1.8075000000 16.2675000000 0.0000000000
163 1 1.8075000000 14.4600000000 1.8075000000
164 1 0.0000000000 16.2675000000 1.8075000000
165 1 3.6150000000 14.4600000000 0.0000000000
166 1 5.4225000000 16.2675000000 0.0000000000
167 1 5.4225000000 14.4600000000 1.8075000000
168 1 3.6150000000 16.2675000000 1.8075000000
169 1 7.2300000000 14.4600000000 0.0000000000
170 1 9.0375000000 16.2675000000 0.0000000000
171 1 9.0375000000 14.4600000000 1.8075000000
172 1 7.2300000000 16.2675000000 1.8075000000
173 1 10.8450000000 14.4600000000 0.0000000000
174 1 12.6525000000 16.2675000000 0.0000000000
175 1 12.6525000000 14.4600000000 1.8075000000
176 1 10.8450000000 16.2675000000 1.8075000000
177 1 14.4600000000 14.4600000000 0.0000000000
178 1 16.2675000000 16.2675000000 0.0000000000
179 1 16.2675000000 14.4600000000 1.8075000000
180 1 14.4600000000 16.2675000000 1.8075000000
181 1 18.0750000000 14.4600000000 0.0000000000
182 1 19.8825000000 16.2675000000 0.0000000000
183 1 19.8825000000 14.4600000000 1.8075000000
184 1 18.0750000000 16.2675000000 1.8075000000
185 1 21.6900000000 14.4600000000 0.0000000000
186 1 23.4975000000 16.2675000000 0.0000000000
187 1 23.4975000000 14.4600000000 1.8075000000
188 1 21.6900000000 16.2675000000 1.8075000000
189 1 25.3050000000 14.4600000000 0.0000000000
190 1 27.1125000000 16.2675000000 0.0000000000
191 1 27.1125000000 14.4600000000 1.8075000000
192 1 25.3050000000 16.2675000000 1.8075000000
193 1 28.9200000000 14.4600000000 0.0000000000
194 1 30.7275000000 16.2675000000 0.0000000000
195 1 30.7275000000 14.4600000000 1.8075000000
196 1 28.9200000000 16.2675000000 1.8075000000
197 1 32.5350000000 14.4600000000 0.0000000000
198 1 34.3425000000 16.2675000000 0.0000000000
199 1 34.3425000000 14.4600000000 1.8075000000
200 1 32.5350000000 16.2675000000 1.8075000000
201 1 0.0000000000 18.0750000000 0.0000000000
202 1 1.8075000000 19.8825000000 0.0000000000
203 1 1.8075000000 18.0750000000 1.8075000000
204 1 0.0000000000 19.8825000000 1.8075000000
205 1 3.6150000000 18.0750000000 0.0000000000
206 1 5.4225000000 19.8825000000 0.0000000000
207 1 5.4225000000 18.0750000000 1.8075000000
208 1 3.6150000000 19.8825000000 1.8075000000
209 1 7.2300000000 18.0750000000 0.0000000000
210 1 9.0375000000 19.8825000000 0.0000000000
211 1 9.0375000000 18.0750000000 1.8075000000
212 1 7.2300000000 19.8825000000 1.8075000000
213 1 10.8450000000 18.0750000000 0.0000000000
214 1 12.6525000000 19.8825000000 0.0000000000
215 1 12.6525000000 18.0750000000 1.8075000000
216 1 10.8450000000 19.8825000000 1.8075000000
217 1 14.4600000000 18.0750000000 0.0000000000
218 1 16.2675000000 19.8825000000 0.0000000000
219 1 16.2675000000 18.0750000000 1.8075000000
220 1 14.4600000000 19.8825000000 1.8075000000
221 1 18.0750000000 18.0750000000 0.0000000000
222 1 19.8825000000 19.8825000000 0.0000000000
223 1 19.8825000000 18.0750000000 1.8075000000
224 1 18.0750000000 19.8825000000 1.8075000000
225 1 21.6900000000 18.0750000000 0.0000000000
226 1 23.4975000000 19.8825000000 0.0000000000
227 1 23.4975000000 18.0750000000 1.8075000000
228 1 21.6900000000 19.8825000000 1.8075000000
229 1 25.3050000000 18.0750000000 0.0000000000
230 1 27.1125000000 19.8825000000 0.0000000000
231 1 27.1125000000 18.0750000000 1.8075000000
232 1 25.3050000000 19.8825000000 1.8075000000
233 1 28.9200000000 18.0750000000 0.0000000000
234 1 30.7275000000 19.8825000000 0.0000000000
235 1 30.7275000000 18.0750000000 1.8075000000
236 1 28.9200000000 19.8825000000 1.8075000000
237 1 32.5350000000 18.0750000000 0.0000000000
238 1 34.3425000000 19.8825000000 0.0000000000
239 1 34.3425000000 18.0750000000 1.8075000000
240 1 32.5350000000 19.8825000000 1.8075000000
241 1 0.0000000000 21.6900000000 0.0000000000
242 1 1.8075000000 23.4975000000 0.0000000000
243 1 1.8075000000 21.6900000000 1.8075000000
244 1 0.0000000000 23.4975000000 1.8075000000
245 1 3.6150000000 21.6900000000 0.0000000000
246 1 5.4225000000 23.4975000000 0.0000000000
247 1 5.4225000000 21.6900000000 1.8075000000
248 1 3.6150000000 23.4975000000 1.8075000000
249 1 7.2300000000 21.6900000000 0.0000000000
250 1 9.0375000000 23.4975000000 0.0000000000
251 1 9.0375000000 21.6900000000 1.8075000000
252 1 7.2300000000 23.4975000000 1.8075000000
253 1 10.8450000000 21.6900000000 0.0000000000
254 1 12.6525000000 23.4975000000 0.0000000000
255 1 12.6525000000 21.6900000000 1.8075000000
256 1 10.8450000000 23.4975000000 1.8075000000
257 1 14.4600000000 21.6900000000 0.0000000000
258 1 16.2675000000 23.4975000000 0.0000000000
259 1 16.2675000000 21.6900000000 1.8075000000
260 1 14.4600000000 23.4975000000 1.8075000000
261 1 18.0750000000 21.6900000000 0.0000000000
262 1 19.8825000000 23.4975000000 0.0000000000
263 1 19.8825000000 21.6900000000 1.8075000000
264 1 18.0750000000 23.4975000000 1.8075000000
265 1 21.6900000000 21.6900000000 0.0000000000
266 1 23.4975000000 23.4975000000 0.0000000000
267 1 23.4975000000 21.6900000000 1.8075000000
268 1 21.6900000000 23.4975000000 1.8075000000
269 1 25.3050000000 21.6900000000 0.0000000000
270 1 27.1125000000 23.4975000000 0.0000000000
271 1 27.1125000000 21.6900000000 1.8075000000
272 1 25.3050000000 23.4975000000 1.8075000000
273 1 28.9200000000 21.6900000000 0.0000000000
274 1 30.7275000000 23.4975000000 0.0000000000
275 1 30.7275000000 21.6900000000 1.8075000000
276 1 28.9200000000 23.4975000000 1.8075000000
277 1 32.5350000000 21.6900000000 0.0000000000
278 1 34.3425000000 23.4975000000 0.0000000000
279 1 34.3425000000 21.6900000000 1.8075000000
280 1 32.5350000000 23.4975000000 1.8075000000
281 1 0.0000000000 25.3050000000 0.0000000000
282 1 1.8075000000 27.1125000000 0.0000000000
283 1 1.8075000000 25.3050000000 1.8075000000
284 1 0.0000000000 27.1125000000 1.8075000000
285 1 3.6150000000 25.3050000000 0.0000000000
286 1 5.4225000000 27.1125000000 0.0000000000
287 1 5.4225000000 25.3050000000 1.8075000000
288 1 3.6150000000 27.1125000000 1.8075000000
289 1 7.2300000000 25.3050000000 0.0000000000
290 1 9.0375000000 27.1125000000 0.0000000000
291 1 9.0375000000 25.3050000000 1.8075000000
292 1 7.2300000000 27.1125000000 1.8075000000
293 1 10.8450000000 25.3050000000 0.0000000000
294 1 12.6525000000 27.1125000000 0.0000000000
295 1 12.6525000000 25.3050000000 1.8075000000
296 1 10.8450000000 27.1125000000 1.8075000000
297 1 14.4600000000 25.3050000000 0.0000000000
298 1 16.2675000000 27.1125000000 0.0000000000
299 1 16.2675000000 25.3050000000 1.8075000000
300 1 14.4600000000 27.1125000000 1.8075000000
301 1 18.0750000000 25.3050000000 0.0000000000
302 1 19.8825000000 27.1125000000 0.0000000000
303 1 19.8825000000 25.3050000000 1.8075000000
304 1 18.0750000000 27.1125000000 1.8075000000
305 1 21.6900000000 25.3050000000 0.0000000000
306 1 23.4975000000 27.1125000000 0.0000000000
307 1 23.4975000000 25.3050000000 1.8075000000
308 1 21.6900000000 27.1125000000 1.8075000000
309 1 25.3050000000 25.3050000000 0.0000000000
310 1 27.1125000000 27.1125000000 0.0000000000
311 1 27.1125000000 25.3050000000 1.8075000000
312 1 25.3050000000 27.1125000000 1.8075000000
313 1 28.9200000000 25.3050000000 0.0000000000
314 1 30.7275000000 27.1125000000 0.0000000000
315 1 30.7275000000 25.3050000000 1.8075000000
316 1 28.9200000000 27.1125000000 1.8075000000
317 1 32.5350000000 25.3050000000 0.0000000000
318 1 34.3425000000 27.1125000000 0.0000000000
319 1 34.3425000000 25.3050000000 1.8075000000
320 1 32.5350000000 27.1125000000 1.8075000000
321 1 0.0000000000 28.9200000000 0.0000000000
322 1 1.8075000000 30.7275000000 0.0000000000
323 1 1.8075000000 28.9200000000 1.8075000000
324 1 0.0000000000 30.7275000000 1.8075000000
325 1 3.6150000000 28.9200000000 0.0000000000
326 1 5.4225000000 30.7275000000 0.0000000000
327 1 5.4225000000 28.9200000000 1.8075000000
328 1 3.6150000000 30.7275000000 1.8075000000
329 1 7.2300000000 28.9200000000 0.0000000000
330 1 9.0375000000 30.7275000000 0.0000000000
331 1 9.0375000000 28.9200000000 1.8075000000
332 1 7.2300000000 30.7275000000 1.8075000000
333 1 10.8450000000 28.9200000000 0.0000000000
334 1 12.6525000000 30.7275000000 0.0000000000
335 1 12.6525000000 28.9200000000 1.8075000000
336 1 10.8450000000 30.7275000000 1.8075000000
337 1 14.4600000000 28.9200000000 0.0000000000
338 1 16.2675000000 30.7275000000 0.0000000000
339 1 16.2675000000 28.9200000000 1.8075000000
340 1 14.4600000000 30.7275000000 1.8075000000
341 1 18.0750000000 28.9200000000 0.0000000000
342 1 19.8825000000 30.7275000000 0.0000000000
343 1 19.8825000000 28.9200000000 1.8075000000
344 1 18.0750000000 30.7275000000 1.8075000000
345 1 21.6900000000 28.9200000000 0.0000000000
346 1 23.4975000000 30.7275000000 0.0000000000
347 1 23.4975000000 28.9200000000 1.8075000000
348 1 21.6900000000 30.7275000000 1.8075000000
349 1 25.3050000000 28.9200000000 0.0000000000
350 1 27.1125000000 30.7275000000 0.0000000000
351 1 27.1125000000 28.9200000000 1.8075000000
352 1 25.3050000000 30.7275000000 1.8075000000
353 1 28.9200000000 28.9200000000 0.0000000000
354 1 30.7275000000 30.7275000000 0.0000000000
355 1 30.7275000000 28.9200000000 1.8075000000
356 1 28.9200000000 30.7275000000 1.8075000000
357 1 32.5350000000 28.9200000000 0.0000000000
358 1 34.3425000000 30.7275000000 0.0000000000
359 1 34.3425000000 28.9200000000 1.8075000000
360 1 32.5350000000 30.7275000000 1.8075000000
361 1 0.0000000000 32.5350000000 0.0000000000
362 1 1.8075000000 34.3425000000 0.0000000000
363 1 1.8075000000 32.5350000000 1.8075000000
364 1 0.0000000000 34.3425000000 1.8075000000
365 1 3.6150000000 32.5350000000 0.0000000000
366 1 5.4225000000 34.3425000000 0.0000000000
367 1 5.4225000000 32.5350000000 1.8075000000
368 1 3.6150000000 34.3425000000 1.8075000000
369 1 7.2300000000 32.5350000000 0.0000000000
370 1 9.0375000000 34.3425000000 0.0000000000
371 1 9.0375000000 32.5350000000 1.8075000000
372 1 7.2300000000 34.3425000000 1.8075000000
373 1 10.8450000000 32.5350000000 0.0000000000
374 1 12.6525000000 34.3425000000 0.0000000000
375 1 12.6525000000 32.5350000000 1.8075000000
376 1 10.8450000000 34.3425000000 1.8075000000
377 1 14.4600000000 32.5350000000 0.0000000000
378 1 16.2675000000 34.3425000000 0.0000000000
379 1 16.2675000000 32.5350000000 1.8075000000
380 1 14.4600000000 34.3425000000 1.8075000000
381 1 18.0750000000 32.5350000000 0.0000000000
382 1 19.8825000000 34.3425000000 0.0000000000
383 1 19.8825000000 32.5350000000 1.8075000000
384 1 18.0750000000 34.3425000000 1.8075000000
385 1 21.6900000000 32.5350000000 0.0000000000
386 1 23.4975000000 34.3425000000 0.0000000000
387 1 23.4975000000 32.5350000000 1.8075000000
388 1 21.6900000000 34.3425000000 1.8075000000
389 1 25.3050000000 32.5350000000 0.0000000000
390 1 27.1125000000 34.3425000000 0.0000000000
391 1 27.1125000000 32.5350000000 1.8075000000
392 1 25.3050000000 34.3425000000 1.8075000000
393 1 28.9200000000 32.5350000000 0.0000000000
394 1 30.7275000000 34.3425000000 0.0000000000
395 1 30.7275000000 32.5350000000 1.8075000000
396 1 28.9200000000 34.3425000000 1.8075000000
397 1 32.5350000000 32.5350000000 0.0000000000
398 1 34.3425000000 34.3425000000 0.0000000000
399 1 34.3425000000 32.5350000000 1.8075000000
400 1 32.5350000000 34.3425000000 1.8075000000
401 1 0.0000000000 0.0000000000 3.6150000000
402 1 1.8075000000 1.8075000000 3.6150000000
403 1 1.8075000000 0.0000000000 5.4225000000
404 1 0.0000000000 1.8075000000 5.4225000000
405 1 3.6150000000 0.0000000000 3.6150000000
406 1 5.4225000000 1.8075000000 3.6150000000
407 1 5.4225000000 0.0000000000 5.4225000000
408 1 3.6150000000 1.8075000000 5.4225000000
409 1 7.2300000000 0.0000000000 3.6150000000
410 1 9.0375000000 1.8075000000 3.6150000000
411 1 9.0375000000 0.0000000000 5.4225000000
412 1 7.2300000000 1.8075000000 5.4225000000
413 1 10.8450000000 0.0000000000 3.6150000000
414 1 12.6525000000 1.8075000000 3.6150000000
415 1 12.6525000000 0.0000000000 5.4225000000
416 1 10.8450000000 1.8075000000 5.4225000000
417 1 14.4600000000 0.0000000000 3.6150000000
418 1 16.2675000000 1.8075000000 3.6150000000
419 1 16.2675000000 0.0000000000 5.4225000000
420 1 14.4600000000 1.8075000000 5.4225000000
421 1 18.0750000000 0.0000000000 3.6150000000
422 1 19.8825000000 1.8075000000 3.6150000000
423 1 19.8825000000 0.0000000000 5.4225000000
424 1 18.0750000000 1.8075000000 5.4225000000
425 1 21.6900000000 0.0000000000 3.6150000000
426 1 23.4975000000 1.8075000000 3.6150000000
427 1 23.4975000000 0.0000000000 5.4225000000
428 1 21.6900000000 1.8075000000 5.4225000000
429 1 25.3050000000 0.0000000000 3.6150000000
430 1 27.1125000000 1.8075000000 3.6150000000
431 1 27.1125000000 0.0000000000 5.4225000000
432 1 25.3050000000 1.8075000000 5.4225000000
433 1 28.9200000000 0.0000000000 3.6150000000
434 1 30.7275000000 1.8075000000 3.6150000000
435 1 30.7275000000 0.0000000000 5.4225000000
436 1 28.9200000000 1.8075000000 5.4225000000
437 1 32.5350000000 0.0000000000 3.6150000000
438 1 34.3425000000 1.8075000000 3.6150000000
439 1 34.3425000000 0.0000000000 5.4225000000
440 1 32.5350000000 1.8075000000 5.4225000000
441 1 0.0000000000 3.6150000000 3.6150000000
442 1 1.8075000000 5.4225000000 3.6150000000
443 1 1.8075000000 3.6150000000 5.4225000000
444 1 0.0000000000 5.4225000000 5.4225000000
445 1 3.6150000000 3.6150000000 3.6150000000
446 1 5.4225000000 5.4225000000 3.6150000000
447 1 5.4225000000 3.6150000000 5.4225000000
448 1 3.6150000000 5.4225000000 5.4225000000
449 1 7.2300000000 3.6150000000 3.6150000000
450 1 9.0375000000 5.4225000000 3.6150000000
451 1 9.0375000000 3.6150000000 5.4225000000
452 1 7.2300000000 5.4225000000 5.4225000000
453 1 10.8450000000 3.6150000000 3.6150000000
454 1 12.6525000000 5.4225000000 3.6150000000
455 1 12.6525000000 3.6150000000 5.4225000000
456 1 10.8450000000 5.4225000000 5.4225000000
457 1 14.4600000000 3.6150000000 3.6150000000
458 1 16.2675000000 5.4225000000 3.6150000000
459 1 16.2675000000 3.6150000000 5.4225000000
460 1 14.4600000000 5.4225000000 5.4225000000
461 1 18.0750000000 3.6150000000 3.6150000000
462 1 19.8825000000 5.4225000000 3.6150000000
463 1 19.8825000000 3.6150000000 5.4225000000
464 1 18.0750000000 5.4225000000 5.4225000000
465 1 21.6900000000 3.6150000000 3.6150000000
466 1 23.4975000000 5.4225000000 3.6150000000
467 1 23.4975000000 3.6150000000 5.4225000000
468 1 21.6900000000 5.4225000000 5.4225000000
469 1 25.3050000000 3.6150000000 3.6150000000
470 1 27.1125000000 5.4225000000 3.6150000000
471 1 27.1125000000 3.6150000000 5.4225000000
472 1 25.3050000000 5.4225000000 5.4225000000
473 1 28.9200000000 3.6150000000 3.6150000000
474 1 30.7275000000 5.4225000000 3.6150000000
475 1 30.7275000000 3.6150000000 5.4225000000
476 1 28.9200000000 5.4225000000 5.4225000000
477 1 32.5350000000 3.6150000000 3.6150000000
478 1 34.3425000000 5.4225000000 3.6150000000
479 1 34.3425000000 3.6150000000 5.4225000000
480 1 32.5350000000 5.4225000000 5.4225000000
481 1 0.0000000000 7.2300000000 3.6150000000
482 1 1.8075000000 9.0375000000 3.6150000000
483 1 1.8075000000 7.2300000000 5.4225000000
484 1 0.0000000000 9.0375000000 5.4225000000
485 1 3.6150000000 7.2300000000 3.6150000000
486 1 5.4225000000 9.0375000000 3.6150000000
487 1 5.4225000000 7.2300000000 5.4225000000
488 1 3.6150000000 9.0375000000 5.4225000000
489 1 7.2300000000 7.2300000000 3.6150000000
490 1 9.0375000000 9.0375000000 3.6150000000
491 1 9.0375000000 7.2300000000 5.4225000000
492 1 7.2300000000 9.0375000000 5.4225000000
493 1 10.8450000000 7.2300000000 3.6150000000
494 1 12.6525000000 9.0375000000 3.6150000000
495 1 12.6525000000 7.2300000000 5.4225000000
496 1 10.8450000000 9.0375000000 5.4225000000
497 1 14.4600000000 7.2300000000 3.6150000000
498 1 16.2675000000 9.0375000000 3.6150000000
499 1 16.2675000000 7.2300000000 5.4225000000
500 1 14.4600000000 9.0375000000 5.4225000000
501 1 18.0750000000 7.2300000000 3.6150000000
502 1 19.8825000000 9.0375000000 3.6150000000
503 1 19.8825000000 7.2300000000 5.4225000000
504 1 18.0750000000 9.0375000000 5.4225000000
505 1 21.6900000000 7.2300000000 3.6150000000
506 1 23.4975000000 9.0375000000 3.6150000000
507 1 23.4975000000 7.2300000000 5.4225000000
508 1 21.6900000000 9.0375000000 5.4225000000
509 1 25.3050000000 7.2300000000 3.6150000000
510 1 27.1125000000 9.0375000000 3.6150000000
511 1 27.1125000000 7.2300000000 5.4225000000
512 1 25.3050000000 9.0375000000 5.4225000000
513 1 28.9200000000 7.2300000000 3.6150000000
514 1 30.7275000000 9.0375000000 3.6150000000
515 1 30.7275000000 7.2300000000 5.4225000000
516 1 28.9200000000 9.0375000000 5.4225000000
517 1 32.5350000000 7.2300000000 3.6150000000
518 1 34.3425000000 9.0375000000 3.6150000000
519 1 34.3425000000 7.2300000000 5.4225000000
520 1 32.5350000000 9.0375000000 5.4225000000
521 1 0.0000000000 10.8450000000 3.6150000000
522 1 1.8075000000 12.6525000000 3.6150000000
523 1 1.8075000000 10.8450000000 5.4225000000
524 1 0.0000000000 12.6525000000 5.4225000000
525 1 3.6150000000 10.8450000000 3.6150000000
526 1 5.4225000000 12.6525000000 3.6150000000
527 1 5.4225000000 10.8450000000 5.4225000000
528 1 3.6150000000 12.6525000000 5.4225000000
529 1 7.2300000000 10.8450000000 3.6150000000
530 1 9.0375000000 12.6525000000 3.6150000000
531 1 9.0375000000 10.8450000000 5.4225000000
532 1 7.2300000000 12.6525000000 5.4225000000
533 1 10.8450000000 10.8450000000 3.6150000000
534 1 12.6525000000 12.6525000000 3.6150000000
535 1 12.6525000000 10.8450000000 5.4225000000
536 1 10.8450000000 12.6525000000 5.4225000000
537 1 14.4600000000 10.8450000000 3.6150000000
538 1 16.2675000000 12.6525000000 3.6150000000
539 1 16.2675000000 10.8450000000 5.4225000000
540 1 14.4600000000 12.6525000000 5.4225000000
541 1 18.0750000000 10.8450000000 3.6150000000
542 1 19.8825000000 12.6525000000 3.6150000000
543 1 19.8825000000 10.8450000000 5.4225000000
544 1 18.0750000000 12.6525000000 5.4225000000
545 1 21.6900000000 10.8450000000 3.6150000000
546 1 23.4975000000 12.6525000000 3.6150000000
547 1 23.4975000000 10.8450000000 5.4225000000
548 1 21.6900000000 12.6525000000 5.4225000000
549 1 25.3050000000 10.8450000000 3.6150000000
550 1 27.1125000000 12.6525000000 3.6150000000
551 1 27.1125000000 10.8450000000 5.4225000000
552 1 25.3050000000 12.6525000000 5.4225000000
553 1 28.9200000000 10.8450000000 3.6150000000
554 1 30.7275000000 12.6525000000 3.6150000000
555 1 30.7275000000 10.8450000000 5.4225000000
556 1 28.9200000000 12.6525000000 5.4225000000
557 1 32.5350000000 10.8450000000 3.6150000000
558 1 34.3425000000 12.6525000000 3.6150000000
559 1 34.3425000000 10.8450000000 5.4225000000
560 1 32.5350000000 12.6525000000 5.4225000000
561 1 0.0000000000 14.4600000000 3.6150000000
562 1 1.8075000000 16.2675000000 3.6150000000
563 1 1.8075000000 14.4600000000 5.4225000000
564 1 0.0000000000 16.2675000000 5.4225000000
565 1 3.6150000000 14.4600000000 3.6150000000
566 1 5.4225000000 16.2675000000 3.6150000000
567 1 5.4225000000 14.4600000000 5.4225000000
568 1 3.6150000000 16.2675000000 5.4225000000
569 1 7.2300000000 14.4600000000 3.6150000000
570 1 9.0375000000 16.2675000000 3.6150000000
571 1 9.0375000000 14.4600000000 5.4225000000
572 1 7.2300000000 16.2675000000 5.4225000000
573 1 10.8450000000 14.4600000000 3.6150000000
574 1 12.6525000000 16.2675000000 3.6150000000
575 1 12.6525000000 14.4600000000 5.4225000000
576 1 10.8450000000 16.2675000000 5.4225000000
577 1 14.4600000000 14.4600000000 3.6150000000
578 1 16.2675000000 16.2675000000 3.6150000000
579 1 16.2675000000 14.4600000000 5.4225000000
580 1 14.4600000000 16.2675000000 5.4225000000
581 1 18.0750000000 14.4600000000 3.6150000000
582 1 19.8825000000 16.2675000000 3.6150000000
583 1 19.8825000000 14.4600000000 5.4225000000
584 1 18.0750000000 16.2675000000 5.4225000000
585 1 21.6900000000 14.4600000000 3.6150000000
586 1 23.4975000000 16.2675000000 3.6150000000
587 1 23.4975000000 14.4600000000 5.4225000000
588 1 21.6900000000 16.2675000000 5.4225000000
589 1 25.3050000000 14.4600000000 3.6150000000
590 1 27.1125000000 16.2675000000 3.6150000000
591 1 27.1125000000 14.4600000000 5.4225000000
592 1 25.3050000000 16.2675000000 5.4225000000
593 1 28.9200000000 14.4600000000 3.6150000000
594 1 30.7275000000 16.2675000000 3.6150000000
595 1 30.7275000000 14.4600000000 5.4225000000
596 1 28.9200000000 16.2675000000 5.4225000000
597 1 32.5350000000 14.4600000000 3.6150000000
598 1 34.3425000000 16.2675000000 3.6150000000
599 1 34.3425000000 14.4600000000 5.4225000000
600 1 32.5350000000 16.2675000000 5.4225000000
601 1 0.0000000000 18.0750000000 3.6150000000
602 1 1.8075000000 19.8825000000 3.6150000000
603 1 1.8075000000 18.0750000000 5.4225000000
604 1 0.0000000000 19.8825000000 5.4225000000
605 1 3.6150000000 18.0750000000 3.6150000000
606 1 5.4225000000 19.8825000000 3.6150000000
607 1 5.4225000000 18.0750000000 5.4225000000
608 1 3.6150000000 19.8825000000 5.4225000000
609 1 7.2300000000 18.0750000000 3.6150000000
610 1 9.0375000000 19.8825000000 3.6150000000
611 1 9.0375000000 18.0750000000 5.4225000000
612 1 7.2300000000 19.8825000000 5.4225000000
613 1 10.8450000000 18.0750000000 3.6150000000
614 1 12.6525000000 19.8825000000 3.6150000000
615 1 12.6525000000 18.0750000000 5.4225000000
616 1 10.8450000000 19.8825000000 5.4225000000
617 1 14.4600000000 18.0750000000 3.6150000000
618 1 16.2675000000 19.8825000000 3.6150000000
619 1 16.2675000000 18.0750000000 5.4225000000
620 1 14.4600000000 19.8825000000 5.4225000000
621 1 18.0750000000 18.0750000000 3.6150000000
622 1 19.8825000000 19.8825000000 3.6150000000
623 1 19.8825000000 18.0750000000 5.4225000000
624 1 18.0750000000 19.8825000000 5.4225000000
625 1 21.6900000000 18.0750000000 3.6150000000
626 1 23.4975000000 19.8825000000 3.6150000000
627 1 23.4975000000 18.0750000000 5.4225000000
628 1 21.6900000000 19.8825000000 5.4225000000
629 1 25.3050000000 18.0750000000 3.6150000000
630 1 27.1125000000 19.8825000000 3.6150000000
631 1 27.1125000000 18.0750000000 5.4225000000
632 1 25.3050000000 19.8825000000 5.4225000000
633 1 28.9200000000 18.0750000000 3.6150000000
634 1 30.7275000000 19.8825000000 3.6150000000
635 1 30.7275000000 18.0750000000 5.4225000000
636 1 28.9200000000 19.8825000000 5.4225000000
637 1 32.5350000000 18.0750000000 3.6150000000
638 1 34.3425000000 19.8825000000 3.6150000000
639 1 34.3425000000 18.0750000000 5.4225000000
640 1 32.5350000000 19.8825000000 5.4225000000
641 1 0.0000000000 21.6900000000 3.6150000000
642 1 1.8075000000 23.4975000000 3.6150000000
643 1 1.8075000000 21.6900000000 5.4225000000
644 1 0.0000000000 23.4975000000 5.4225000000
645 1 3.6150000000 21.6900000000 3.6150000000