LAMMPS (2 Aug 2023 - Update 3)
Reading data file ...
  orthogonal box = (0 0 0) to (72.3 72.3 72.3)
  1 by 1 by 1 MPI processor grid
  reading atoms ...
  32000 atoms
  read_data CPU = 0.024 seconds

CITE-CITE-CITE-CITE-CITE-CITE-CITE-CITE-CITE-CITE-CITE-CITE-CITE

Your simulation uses code contributions which should be cited:
- GPU package (short-range, long-range and three-body potentials): doi:10.1016/j.cpc.2010.12.021, doi:10.1016/j.cpc.2011.10.012, doi:10.1016/j.cpc.2013.08.002, doi:10.1016/j.commatsci.2014.10.068, doi:10.1016/j.cpc.2016.10.020, doi:10.3233/APC200086
The log file lists these citations in BibTeX format.

CITE-CITE-CITE-CITE-CITE-CITE-CITE-CITE-CITE-CITE-CITE-CITE-CITE


--------------------------------------------------------------------------
- Using acceleration for morse:
-  with 1 proc(s) per device.
-  Horizontal vector operations: ENABLED
-  Shared memory system: No
--------------------------------------------------------------------------
Device 0: NVIDIA GeForce RTX 5080, 84 CUs, 15/15 GB, 2.6 GHZ (Mixed Precision)
--------------------------------------------------------------------------

Initializing Device and compiling on process 0...Done.
Initializing Device 0 on core 0...Done.

Generated 0 of 0 mixed pair_coeff terms from geometric mixing rule
Setting up Verlet run ...
  Unit style    : metal
  Current step  : 0
  Time step     : 0.001
Per MPI rank memory allocation (min/avg/max) = 9.491 | 9.491 | 9.491 Mbytes
   Step          Temp          PotEng         KinEng         TotEng    
         0   300           -108455.75      1240.8586     -107214.89    
       100   183.86819     -107975.18      760.51476     -107214.67    
Loop time of 0.0327828 on 1 procs for 100 steps with 32000 atoms

Performance: 263.553 ns/day, 0.091 hours/ns, 3050.382 timesteps/s, 97.612 Matom-step/s
98.3% CPU use with 1 MPI tasks x no OpenMP threads

MPI task timing breakdown:
Section |  min time  |  avg time  |  max time  |%varavg| %total
---------------------------------------------------------------
Pair    | 0.019821   | 0.019821   | 0.019821   |   0.0 | 60.46
Neigh   | 6.1e-07    | 6.1e-07    | 6.1e-07    |   0.0 |  0.00
Comm    | 0.007176   | 0.007176   | 0.007176   |   0.0 | 21.89
Output  | 9.4411e-05 | 9.4411e-05 | 9.4411e-05 |   0.0 |  0.29
Modify  | 0.0037847  | 0.0037847  | 0.0037847  |   0.0 | 11.54
Other   |            | 0.001906   |            |       |  5.82

Nlocal:          32000 ave       32000 max       32000 min
Histogram: 1 0 0 0 0 0 0 0 0 0
Nghost:          19911 ave       19911 max       19911 min
Histogram: 1 0 0 0 0 0 0 0 0 0
Neighs:              0 ave           0 max           0 min
Histogram: 1 0 0 0 0 0 0 0 0 0

Total # of neighbors = 0
Ave neighs/atom = 0
Neighbor list builds = 10
Dangerous builds not checked


---------------------------------------------------------------------
      Device Time Info (average): 
---------------------------------------------------------------------
Data Transfer:   0.0062 s.
Neighbor copy:   0.0002 s.
Neighbor build:  0.0010 s.
Force calc:      0.0083 s.
Device Overhead: 0.0119 s.
Average split:   1.0000.
Lanes / atom:    4.
Vector width:    32.
Prefetch mode:   None.
Max Mem / Proc:  26.90 MB.
CPU Neighbor:    0.0026 s.
CPU Cast/Pack:   0.0046 s.
CPU Driver_Time: 0.0011 s.
CPU Idle_Time:   0.0120 s.
---------------------------------------------------------------------


--------------------------------------------------------------------------
- Using acceleration for morse:
-  with 1 proc(s) per device.
-  Horizontal vector operations: ENABLED
-  Shared memory system: No
--------------------------------------------------------------------------
Device 0: NVIDIA GeForce RTX 5080, 84 CUs, 15/15 GB, 2.6 GHZ (Mixed Precision)
--------------------------------------------------------------------------

Initializing Device and compiling on process 0...Done.
Initializing Device 0 on core 0...Done.

Generated 0 of 0 mixed pair_coeff terms from geometric mixing rule
Setting up Verlet run ...
  Unit style    : metal
  Current step  : 0
  Time step     : 0.001
Per MPI rank memory allocation (min/avg/max) = 9.498 | 9.498 | 9.498 Mbytes
   Step          Temp          PotEng         KinEng         TotEng    
         0   183.86819     -107975.18      760.51476     -107214.67    
       100   158.85832     -107871.69      657.06904     -107214.62    
       200   150.61867     -107837.57      622.98825     -107214.59    
       300   149.67062     -107833.66      619.06694     -107214.59    
       400   147.58039     -107824.99      610.42133     -107214.56    
       500   149.12602     -107831.39      616.81436     -107214.57    
       600   150.88394     -107838.67      624.08547     -107214.58    
       700   148.87621     -107830.37      615.78109     -107214.59    
       800   148.48219     -107828.68      614.15133     -107214.53    
       900   149.54941     -107833.13      618.56556     -107214.56    
      1000   150.11245     -107835.46      620.8944      -107214.56    
Loop time of 0.308784 on 1 procs for 1000 steps with 32000 atoms

Performance: 279.807 ns/day, 0.086 hours/ns, 3238.512 timesteps/s, 103.632 Matom-step/s
99.9% CPU use with 1 MPI tasks x no OpenMP threads

MPI task timing breakdown:
Section |  min time  |  avg time  |  max time  |%varavg| %total
---------------------------------------------------------------
Pair    | 0.20214    | 0.20214    | 0.20214    |   0.0 | 65.46
Neigh   | 4.037e-06  | 4.037e-06  | 4.037e-06  |   0.0 |  0.00
Comm    | 0.059671   | 0.059671   | 0.059671   |   0.0 | 19.32
Output  | 0.00074224 | 0.00074224 | 0.00074224 |   0.0 |  0.24
Modify  | 0.030839   | 0.030839   | 0.030839   |   0.0 |  9.99
Other   |            | 0.01539    |            |       |  4.98

Nlocal:          32000 ave       32000 max       32000 min
Histogram: 1 0 0 0 0 0 0 0 0 0
Nghost:          19911 ave       19911 max       19911 min
Histogram: 1 0 0 0 0 0 0 0 0 0
Neighs:              0 ave           0 max           0 min
Histogram: 1 0 0 0 0 0 0 0 0 0

Total # of neighbors = 0
Ave neighs/atom = 0
Neighbor list builds = 100
Dangerous builds not checked


---------------------------------------------------------------------
      Device Time Info (average): 
---------------------------------------------------------------------
Data Transfer:   0.0678 s.
Neighbor copy:   0.0020 s.
Neighbor build:  0.0109 s.
Force calc:      0.0775 s.
Device Overhead: 0.0100 s.
Average split:   1.0000.
Lanes / atom:    4.
Vector width:    32.
Prefetch mode:   None.
Max Mem / Proc:  25.00 MB.
CPU Neighbor:    0.0188 s.
CPU Cast/Pack:   0.0424 s.
CPU Driver_Time: 0.0072 s.
CPU Idle_Time:   0.1302 s.
---------------------------------------------------------------------

Total wall time: 0:00:00
