LAMMPS (2 Aug 2023 - Update 3)
package gpu 1
# Phase C LAMMPS A/B: Morse, small (4000-atom Cu FCC).
# Matches TDMD bench_pipeline_scheduler --size small --potential morse exactly.

units           metal
atom_style      atomic
boundary        p p p

read_data       ../small.data
Reading data file ...
  orthogonal box = (0 0 0) to (36.15 36.15 36.15)
  1 by 1 by 1 MPI processor grid
  reading atoms ...
  4000 atoms
  read_data CPU = 0.003 seconds

pair_style      morse 6.0
pair_coeff      1 1 0.3429 1.3588 2.866

neighbor        1.0 bin
neigh_modify    every 10 delay 0 check no

velocity        all create 300.0 42 mom yes rot no

fix             1 all nve
timestep        0.001

thermo          200
thermo_style    custom step temp pe ke etotal

# Warmup.
run             200

CITE-CITE-CITE-CITE-CITE-CITE-CITE-CITE-CITE-CITE-CITE-CITE-CITE

Your simulation uses code contributions which should be cited:

- GPU package (short-range, long-range and three-body potentials): doi:10.1016/j.cpc.2010.12.021, doi:10.1016/j.cpc.2011.10.012, doi:10.1016/j.cpc.2013.08.002, doi:10.1016/j.commatsci.2014.10.068, doi:10.1016/j.cpc.2016.10.020, doi:10.3233/APC200086

@Article{Brown11,
 author = {W. M. Brown and P. Wang and S. J. Plimpton and A. N. Tharrington},
 title = {Implementing Molecular Dynamics on Hybrid High Performance Computers---Short Range Forces},
 journal = {Comput.\ Phys.\ Commun.},
 year =    2011,
 volume =  182,
 pages =   {898--911},
 doi =     {10.1016/j.cpc.2010.12.021}
}

@Article{Brown12,
 author = {W. M. Brown and A. Kohlmeyer and S. J. Plimpton and A. N. Tharrington},
 title = {Implementing Molecular Dynamics on Hybrid High Performance Computers - Particle-Particle Particle-Mesh},
 journal = {Comput.\ Phys.\ Commun.},
 year =    2012,
 volume =  183,
 doi =     {10.1016/j.cpc.2011.10.012},
 pages =   {449--459}
}

@Article{Brown13,
 author = {W. M. Brown and Y. Masako},
 title = {Implementing Molecular Dynamics on Hybrid High Performance Computers---Three-Body Potentials},
 journal = {Comput.\ Phys.\ Commun.},
 year =    2013,
 volume =  184,
 pages =   {2785--2793},
 doi =     {10.1016/j.cpc.2013.08.002},
}

@Article{Trung15,
 author = {T. D. Nguyen and S. J. Plimpton},
 title = {Accelerating Dissipative Particle Dynamics Simulations for Soft Matter Systems},
 journal = {Comput.\ Mater.\ Sci.},
 year =    2015,
 doi =     {10.1016/j.commatsci.2014.10.068},
 volume =  100,
 pages =   {173--180}
}

@Article{Trung17,
 author = {T. D. Nguyen},
 title = {{GPU}-Accelerated {T}ersoff Potentials for Massively Parallel
    Molecular Dynamics Simulations},
 journal = {Comput.\ Phys.\ Commun.},
 year =    2017,
 doi =     {10.1016/j.cpc.2016.10.020},
 volume =  212,
 pages =   {113--122}
}

@inproceedings{Nikolskiy19,
 author = {V. Nikolskiy and V. Stegailov},
 title = {{GPU} Acceleration of Four-Site Water Models in {LAMMPS}},
 booktitle = {Proceedings of the International Conference on Parallel
    Computing (ParCo 2019), Prague, Czech Republic},
 doi =     {10.3233/APC200086},
 year =    2019
}

CITE-CITE-CITE-CITE-CITE-CITE-CITE-CITE-CITE-CITE-CITE-CITE-CITE

Generated 0 of 0 mixed pair_coeff terms from geometric mixing rule
Per MPI rank memory allocation (min/avg/max) = 2.383 | 2.383 | 2.383 Mbytes
   Step          Temp          PotEng         KinEng         TotEng    
         0   300           -13556.968      155.0734      -13401.895    
       200   161.10217     -13485.139      83.275535     -13401.863    
Loop time of 0.0166444 on 1 procs for 200 steps with 4000 atoms

Performance: 1038.186 ns/day, 0.023 hours/ns, 12016.041 timesteps/s, 48.064 Matom-step/s
100.3% CPU use with 1 MPI tasks x no OpenMP threads

MPI task timing breakdown:
Section |  min time  |  avg time  |  max time  |%varavg| %total
---------------------------------------------------------------
Pair    | 0.012097   | 0.012097   | 0.012097   |   0.0 | 72.68
Neigh   | 1.235e-06  | 1.235e-06  | 1.235e-06  |   0.0 |  0.01
Comm    | 0.0031977  | 0.0031977  | 0.0031977  |   0.0 | 19.21
Output  | 1.4428e-05 | 1.4428e-05 | 1.4428e-05 |   0.0 |  0.09
Modify  | 0.00087631 | 0.00087631 | 0.00087631 |   0.0 |  5.26
Other   |            | 0.0004578  |            |       |  2.75

Nlocal:           4000 ave        4000 max        4000 min
Histogram: 1 0 0 0 0 0 0 0 0 0
Nghost:           5841 ave        5841 max        5841 min
Histogram: 1 0 0 0 0 0 0 0 0 0
Neighs:              0 ave           0 max           0 min
Histogram: 1 0 0 0 0 0 0 0 0 0

Total # of neighbors = 0
Ave neighs/atom = 0
Neighbor list builds = 20
Dangerous builds not checked

# Measured. Scrape "Loop time of X.XX on N procs for 2000 steps".
reset_timestep  0
run             2000
Generated 0 of 0 mixed pair_coeff terms from geometric mixing rule
Per MPI rank memory allocation (min/avg/max) = 2.383 | 2.383 | 2.383 Mbytes
   Step          Temp          PotEng         KinEng         TotEng    
         0   161.10217     -13485.139      83.275535     -13401.863    
       200   149.28771     -13479.025      77.16851      -13401.857    
       400   148.7315      -13478.738      76.880994     -13401.857    
       600   153.45147     -13481.179      79.320804     -13401.858    
       800   149.72273     -13479.251      77.393373     -13401.857    
      1000   148.32696     -13478.528      76.671884     -13401.856    
      1200   144.46324     -13476.531      74.674685     -13401.856    
      1400   151.24694     -13480.039      78.181256     -13401.858    
      1600   146.40857     -13477.537      75.680246     -13401.857    
      1800   146.3696      -13477.518      75.660101     -13401.858    
      2000   152.67029     -13480.766      78.917        -13401.849    
Loop time of 0.15217 on 1 procs for 2000 steps with 4000 atoms

Performance: 1135.573 ns/day, 0.021 hours/ns, 13143.203 timesteps/s, 52.573 Matom-step/s
99.8% CPU use with 1 MPI tasks x no OpenMP threads

MPI task timing breakdown:
Section |  min time  |  avg time  |  max time  |%varavg| %total
---------------------------------------------------------------
Pair    | 0.112      | 0.112      | 0.112      |   0.0 | 73.60
Neigh   | 7.187e-06  | 7.187e-06  | 7.187e-06  |   0.0 |  0.00
Comm    | 0.028416   | 0.028416   | 0.028416   |   0.0 | 18.67
Output  | 0.00011533 | 0.00011533 | 0.00011533 |   0.0 |  0.08
Modify  | 0.0077374  | 0.0077374  | 0.0077374  |   0.0 |  5.08
Other   |            | 0.003893   |            |       |  2.56

Nlocal:           4000 ave        4000 max        4000 min
Histogram: 1 0 0 0 0 0 0 0 0 0
Nghost:           5841 ave        5841 max        5841 min
Histogram: 1 0 0 0 0 0 0 0 0 0
Neighs:              0 ave           0 max           0 min
Histogram: 1 0 0 0 0 0 0 0 0 0

Total # of neighbors = 0
Ave neighs/atom = 0
Neighbor list builds = 200
Dangerous builds not checked
Total wall time: 0:00:00
