LAMMPS (2 Aug 2023 - Update 3)
package gpu 1
# Phase C LAMMPS A/B: EAM (Mishin Cu), medium (32000-atom Cu FCC).

units           metal
atom_style      atomic
boundary        p p p

read_data       ../medium.data
Reading data file ...
  orthogonal box = (0 0 0) to (72.3 72.3 72.3)
  1 by 1 by 1 MPI processor grid
  reading atoms ...
  32000 atoms
  read_data CPU = 0.024 seconds

pair_style      eam/alloy
pair_coeff      * * ../../../tests/data/Cu_mishin1.eam.alloy Cu
Reading eam/alloy potential file ../../../tests/data/Cu_mishin1.eam.alloy with DATE: 2007-10-12

neighbor        1.0 bin
neigh_modify    every 10 delay 0 check no

velocity        all create 300.0 42 mom yes rot no

fix             1 all nve
timestep        0.001

thermo          100
thermo_style    custom step temp pe ke etotal

run             100

CITE-CITE-CITE-CITE-CITE-CITE-CITE-CITE-CITE-CITE-CITE-CITE-CITE

Your simulation uses code contributions which should be cited:

- GPU package (short-range, long-range and three-body potentials): doi:10.1016/j.cpc.2010.12.021, doi:10.1016/j.cpc.2011.10.012, doi:10.1016/j.cpc.2013.08.002, doi:10.1016/j.commatsci.2014.10.068, doi:10.1016/j.cpc.2016.10.020, doi:10.3233/APC200086

@Article{Brown11,
 author = {W. M. Brown and P. Wang and S. J. Plimpton and A. N. Tharrington},
 title = {Implementing Molecular Dynamics on Hybrid High Performance Computers---Short Range Forces},
 journal = {Comput.\ Phys.\ Commun.},
 year =    2011,
 volume =  182,
 pages =   {898--911},
 doi =     {10.1016/j.cpc.2010.12.021}
}

@Article{Brown12,
 author = {W. M. Brown and A. Kohlmeyer and S. J. Plimpton and A. N. Tharrington},
 title = {Implementing Molecular Dynamics on Hybrid High Performance Computers - Particle-Particle Particle-Mesh},
 journal = {Comput.\ Phys.\ Commun.},
 year =    2012,
 volume =  183,
 doi =     {10.1016/j.cpc.2011.10.012},
 pages =   {449--459}
}

@Article{Brown13,
 author = {W. M. Brown and Y. Masako},
 title = {Implementing Molecular Dynamics on Hybrid High Performance Computers---Three-Body Potentials},
 journal = {Comput.\ Phys.\ Commun.},
 year =    2013,
 volume =  184,
 pages =   {2785--2793},
 doi =     {10.1016/j.cpc.2013.08.002},
}

@Article{Trung15,
 author = {T. D. Nguyen and S. J. Plimpton},
 title = {Accelerating Dissipative Particle Dynamics Simulations for Soft Matter Systems},
 journal = {Comput.\ Mater.\ Sci.},
 year =    2015,
 doi =     {10.1016/j.commatsci.2014.10.068},
 volume =  100,
 pages =   {173--180}
}

@Article{Trung17,
 author = {T. D. Nguyen},
 title = {{GPU}-Accelerated {T}ersoff Potentials for Massively Parallel
    Molecular Dynamics Simulations},
 journal = {Comput.\ Phys.\ Commun.},
 year =    2017,
 doi =     {10.1016/j.cpc.2016.10.020},
 volume =  212,
 pages =   {113--122}
}

@inproceedings{Nikolskiy19,
 author = {V. Nikolskiy and V. Stegailov},
 title = {{GPU} Acceleration of Four-Site Water Models in {LAMMPS}},
 booktitle = {Proceedings of the International Conference on Parallel
    Computing (ParCo 2019), Prague, Czech Republic},
 doi =     {10.3233/APC200086},
 year =    2019
}

CITE-CITE-CITE-CITE-CITE-CITE-CITE-CITE-CITE-CITE-CITE-CITE-CITE

Per MPI rank memory allocation (min/avg/max) = 9.498 | 9.498 | 9.498 Mbytes
   Step          Temp          PotEng         KinEng         TotEng    
         0   300           -113286.99      1240.8586     -112046.13    
       100   141.53099     -112631.32      585.39982     -112045.92    
Loop time of 0.0371096 on 1 procs for 100 steps with 32000 atoms

Performance: 232.824 ns/day, 0.103 hours/ns, 2694.719 timesteps/s, 86.231 Matom-step/s
99.4% CPU use with 1 MPI tasks x no OpenMP threads

MPI task timing breakdown:
Section |  min time  |  avg time  |  max time  |%varavg| %total
---------------------------------------------------------------
Pair    | 0.024851   | 0.024851   | 0.024851   |   0.0 | 66.97
Neigh   | 5.7e-07    | 5.7e-07    | 5.7e-07    |   0.0 |  0.00
Comm    | 0.0068391  | 0.0068391  | 0.0068391  |   0.0 | 18.43
Output  | 9.4003e-05 | 9.4003e-05 | 9.4003e-05 |   0.0 |  0.25
Modify  | 0.0035914  | 0.0035914  | 0.0035914  |   0.0 |  9.68
Other   |            | 0.001734   |            |       |  4.67

Nlocal:          32000 ave       32000 max       32000 min
Histogram: 1 0 0 0 0 0 0 0 0 0
Nghost:          19911 ave       19911 max       19911 min
Histogram: 1 0 0 0 0 0 0 0 0 0
Neighs:              0 ave           0 max           0 min
Histogram: 1 0 0 0 0 0 0 0 0 0

Total # of neighbors = 0
Ave neighs/atom = 0
Neighbor list builds = 10
Dangerous builds not checked

reset_timestep  0
run             1000
Per MPI rank memory allocation (min/avg/max) = 9.504 | 9.504 | 9.504 Mbytes
   Step          Temp          PotEng         KinEng         TotEng    
         0   141.53099     -112631.32      585.39982     -112045.92    
       100   161.25987     -112712.99      667.00235     -112045.99    
       200   145.58935     -112648.12      602.186       -112045.94    
       300   154.67218     -112685.72      639.75438     -112045.96    
       400   152.25243     -112675.7       629.7458      -112045.96    
       500   149.93482     -112666.11      620.15973     -112045.95    
       600   153.2887      -112679.99      634.03202     -112045.96    
       700   151.09047     -112670.89      624.9397      -112045.96    
       800   151.11278     -112670.99      625.03198     -112045.96    
       900   150.77152     -112669.57      623.62046     -112045.95    
      1000   151.16493     -112671.2       625.2477      -112045.96    
Loop time of 0.355256 on 1 procs for 1000 steps with 32000 atoms

Performance: 243.205 ns/day, 0.099 hours/ns, 2814.875 timesteps/s, 90.076 Matom-step/s
99.8% CPU use with 1 MPI tasks x no OpenMP threads

MPI task timing breakdown:
Section |  min time  |  avg time  |  max time  |%varavg| %total
---------------------------------------------------------------
Pair    | 0.25185    | 0.25185    | 0.25185    |   0.0 | 70.89
Neigh   | 3.988e-06  | 3.988e-06  | 3.988e-06  |   0.0 |  0.00
Comm    | 0.057978   | 0.057978   | 0.057978   |   0.0 | 16.32
Output  | 0.00073204 | 0.00073204 | 0.00073204 |   0.0 |  0.21
Modify  | 0.030047   | 0.030047   | 0.030047   |   0.0 |  8.46
Other   |            | 0.01465    |            |       |  4.12

Nlocal:          32000 ave       32000 max       32000 min
Histogram: 1 0 0 0 0 0 0 0 0 0
Nghost:          19911 ave       19911 max       19911 min
Histogram: 1 0 0 0 0 0 0 0 0 0
Neighs:              0 ave           0 max           0 min
Histogram: 1 0 0 0 0 0 0 0 0 0

Total # of neighbors = 0
Ave neighs/atom = 0
Neighbor list builds = 100
Dangerous builds not checked
Total wall time: 0:00:00
