LAMMPS (2 Aug 2023 - Update 3)
Reading data file ...
  orthogonal box = (0 0 0) to (14.46 14.46 14.46)
  1 by 1 by 1 MPI processor grid
  reading atoms ...
  256 atoms
  read_data CPU = 0.000 seconds
Reading eam/alloy potential file ../../../tests/data/Cu_mishin1.eam.alloy with DATE: 2007-10-12

CITE-CITE-CITE-CITE-CITE-CITE-CITE-CITE-CITE-CITE-CITE-CITE-CITE

Your simulation uses code contributions which should be cited:
- GPU package (short-range, long-range and three-body potentials): doi:10.1016/j.cpc.2010.12.021, doi:10.1016/j.cpc.2011.10.012, doi:10.1016/j.cpc.2013.08.002, doi:10.1016/j.commatsci.2014.10.068, doi:10.1016/j.cpc.2016.10.020, doi:10.3233/APC200086
The log file lists these citations in BibTeX format.

CITE-CITE-CITE-CITE-CITE-CITE-CITE-CITE-CITE-CITE-CITE-CITE-CITE


--------------------------------------------------------------------------
- Using acceleration for eam/alloy:
-  with 1 proc(s) per device.
-  Horizontal vector operations: ENABLED
-  Shared memory system: No
--------------------------------------------------------------------------
Device 0: NVIDIA GeForce RTX 5080, 84 CUs, 15/15 GB, 2.6 GHZ (Mixed Precision)
--------------------------------------------------------------------------

Initializing Device and compiling on process 0...Done.
Initializing Device 0 on core 0...Done.

Setting up Verlet run ...
  Unit style    : metal
  Current step  : 0
  Time step     : 0.001
Per MPI rank memory allocation (min/avg/max) = 2.023 | 2.023 | 2.023 Mbytes
   Step          Temp          PotEng         KinEng         TotEng    
         0   300           -906.29591      9.8884011     -896.40751    
       500   132.70925     -900.78026      4.3742742     -896.40599    
Loop time of 0.0378845 on 1 procs for 500 steps with 256 atoms

Performance: 1140.307 ns/day, 0.021 hours/ns, 13198.002 timesteps/s, 3.379 Matom-step/s
99.9% CPU use with 1 MPI tasks x no OpenMP threads

MPI task timing breakdown:
Section |  min time  |  avg time  |  max time  |%varavg| %total
---------------------------------------------------------------
Pair    | 0.035718   | 0.035718   | 0.035718   |   0.0 | 94.28
Neigh   | 1.697e-06  | 1.697e-06  | 1.697e-06  |   0.0 |  0.00
Comm    | 0.0017792  | 0.0017792  | 0.0017792  |   0.0 |  4.70
Output  | 3.848e-06  | 3.848e-06  | 3.848e-06  |   0.0 |  0.01
Modify  | 0.00018216 | 0.00018216 | 0.00018216 |   0.0 |  0.48
Other   |            | 0.0001997  |            |       |  0.53

Nlocal:            256 ave         256 max         256 min
Histogram: 1 0 0 0 0 0 0 0 0 0
Nghost:           1431 ave        1431 max        1431 min
Histogram: 1 0 0 0 0 0 0 0 0 0
Neighs:              0 ave           0 max           0 min
Histogram: 1 0 0 0 0 0 0 0 0 0

Total # of neighbors = 0
Ave neighs/atom = 0
Neighbor list builds = 50
Dangerous builds not checked


---------------------------------------------------------------------
      Device Time Info (average): 
---------------------------------------------------------------------
Data Transfer:   0.0085 s.
Neighbor copy:   0.0005 s.
Neighbor build:  0.0025 s.
Force calc:      0.0177 s.
Device Overhead: 0.0065 s.
Average split:   1.0000.
Lanes / atom:    4.
Vector width:    32.
Prefetch mode:   None.
Max Mem / Proc:  1.47 MB.
CPU Neighbor:    0.0008 s.
CPU Cast/Pack:   0.0006 s.
CPU Driver_Time: 0.0055 s.
CPU Idle_Time:   0.0122 s.
---------------------------------------------------------------------


--------------------------------------------------------------------------
- Using acceleration for eam/alloy:
-  with 1 proc(s) per device.
-  Horizontal vector operations: ENABLED
-  Shared memory system: No
--------------------------------------------------------------------------
Device 0: NVIDIA GeForce RTX 5080, 84 CUs, 15/15 GB, 2.6 GHZ (Mixed Precision)
--------------------------------------------------------------------------

Initializing Device and compiling on process 0...Done.
Initializing Device 0 on core 0...Done.

Setting up Verlet run ...
  Unit style    : metal
  Current step  : 0
  Time step     : 0.001
Per MPI rank memory allocation (min/avg/max) = 2.023 | 2.023 | 2.023 Mbytes
   Step          Temp          PotEng         KinEng         TotEng    
         0   132.70925     -900.78026      4.3742742     -896.40599    
       500   129.48635     -900.67397      4.2680434     -896.40592    
      1000   159.7816      -901.67279      5.2666153     -896.40617    
      1500   149.34425     -901.32873      4.9225861     -896.40614    
      2000   147.67075     -901.27353      4.8674254     -896.40611    
      2500   149.23262     -901.32501      4.9189067     -896.4061     
      3000   159.7445      -901.67158      5.2653924     -896.40619    
      3500   154.14164     -901.48689      5.0807146     -896.40618    
      4000   140.86146     -901.04909      4.6429822     -896.4061     
      4500   145.90299     -901.21522      4.8091576     -896.40607    
      5000   146.0495      -901.22009      4.8139869     -896.4061     
Loop time of 0.367403 on 1 procs for 5000 steps with 256 atoms

Performance: 1175.819 ns/day, 0.020 hours/ns, 13609.019 timesteps/s, 3.484 Matom-step/s
99.8% CPU use with 1 MPI tasks x no OpenMP threads

MPI task timing breakdown:
Section |  min time  |  avg time  |  max time  |%varavg| %total
---------------------------------------------------------------
Pair    | 0.34957    | 0.34957    | 0.34957    |   0.0 | 95.15
Neigh   | 1.3628e-05 | 1.3628e-05 | 1.3628e-05 |   0.0 |  0.00
Comm    | 0.014711   | 0.014711   | 0.014711   |   0.0 |  4.00
Output  | 3.098e-05  | 3.098e-05  | 3.098e-05  |   0.0 |  0.01
Modify  | 0.0014722  | 0.0014722  | 0.0014722  |   0.0 |  0.40
Other   |            | 0.001606   |            |       |  0.44

Nlocal:            256 ave         256 max         256 min
Histogram: 1 0 0 0 0 0 0 0 0 0
Nghost:           1431 ave        1431 max        1431 min
Histogram: 1 0 0 0 0 0 0 0 0 0
Neighs:              0 ave           0 max           0 min
Histogram: 1 0 0 0 0 0 0 0 0 0

Total # of neighbors = 0
Ave neighs/atom = 0
Neighbor list builds = 500
Dangerous builds not checked


---------------------------------------------------------------------
      Device Time Info (average): 
---------------------------------------------------------------------
Data Transfer:   0.0811 s.
Neighbor copy:   0.0050 s.
Neighbor build:  0.0257 s.
Force calc:      0.1808 s.
Device Overhead: 0.0537 s.
Average split:   1.0000.
Lanes / atom:    4.
Vector width:    32.
Prefetch mode:   None.
Max Mem / Proc:  1.43 MB.
CPU Neighbor:    0.0069 s.
CPU Cast/Pack:   0.0059 s.
CPU Driver_Time: 0.0374 s.
CPU Idle_Time:   0.1269 s.
---------------------------------------------------------------------

Total wall time: 0:00:00
