LAMMPS (2 Aug 2023 - Update 3)
package gpu 1
# Phase C LAMMPS A/B: EAM (Mishin Cu), tiny (256-atom Cu FCC).
# Matches TDMD bench_pipeline_scheduler --size tiny --potential eam
#   --eam tests/data/Cu_mishin1.eam.alloy exactly.
#
# Same geometry, seed, timestep, neighbor settings as morse_tiny.in; the
# only difference is the pair style. Warmup 500, measured 5000.

units           metal
atom_style      atomic
boundary        p p p

read_data       ../tiny.data
Reading data file ...
  orthogonal box = (0 0 0) to (14.46 14.46 14.46)
  1 by 1 by 1 MPI processor grid
  reading atoms ...
  256 atoms
  read_data CPU = 0.000 seconds

pair_style      eam/alloy
pair_coeff      * * ../../../tests/data/Cu_mishin1.eam.alloy Cu
Reading eam/alloy potential file ../../../tests/data/Cu_mishin1.eam.alloy with DATE: 2007-10-12

neighbor        1.0 bin
neigh_modify    every 10 delay 0 check no

velocity        all create 300.0 42 mom yes rot no

fix             1 all nve
timestep        0.001

thermo          500
thermo_style    custom step temp pe ke etotal

run             500

CITE-CITE-CITE-CITE-CITE-CITE-CITE-CITE-CITE-CITE-CITE-CITE-CITE

Your simulation uses code contributions which should be cited:

- GPU package (short-range, long-range and three-body potentials): doi:10.1016/j.cpc.2010.12.021, doi:10.1016/j.cpc.2011.10.012, doi:10.1016/j.cpc.2013.08.002, doi:10.1016/j.commatsci.2014.10.068, doi:10.1016/j.cpc.2016.10.020, doi:10.3233/APC200086

@Article{Brown11,
 author = {W. M. Brown and P. Wang and S. J. Plimpton and A. N. Tharrington},
 title = {Implementing Molecular Dynamics on Hybrid High Performance Computers---Short Range Forces},
 journal = {Comput.\ Phys.\ Commun.},
 year =    2011,
 volume =  182,
 pages =   {898--911},
 doi =     {10.1016/j.cpc.2010.12.021}
}

@Article{Brown12,
 author = {W. M. Brown and A. Kohlmeyer and S. J. Plimpton and A. N. Tharrington},
 title = {Implementing Molecular Dynamics on Hybrid High Performance Computers - Particle-Particle Particle-Mesh},
 journal = {Comput.\ Phys.\ Commun.},
 year =    2012,
 volume =  183,
 doi =     {10.1016/j.cpc.2011.10.012},
 pages =   {449--459}
}

@Article{Brown13,
 author = {W. M. Brown and Y. Masako},
 title = {Implementing Molecular Dynamics on Hybrid High Performance Computers---Three-Body Potentials},
 journal = {Comput.\ Phys.\ Commun.},
 year =    2013,
 volume =  184,
 pages =   {2785--2793},
 doi =     {10.1016/j.cpc.2013.08.002},
}

@Article{Trung15,
 author = {T. D. Nguyen and S. J. Plimpton},
 title = {Accelerating Dissipative Particle Dynamics Simulations for Soft Matter Systems},
 journal = {Comput.\ Mater.\ Sci.},
 year =    2015,
 doi =     {10.1016/j.commatsci.2014.10.068},
 volume =  100,
 pages =   {173--180}
}

@Article{Trung17,
 author = {T. D. Nguyen},
 title = {{GPU}-Accelerated {T}ersoff Potentials for Massively Parallel
    Molecular Dynamics Simulations},
 journal = {Comput.\ Phys.\ Commun.},
 year =    2017,
 doi =     {10.1016/j.cpc.2016.10.020},
 volume =  212,
 pages =   {113--122}
}

@inproceedings{Nikolskiy19,
 author = {V. Nikolskiy and V. Stegailov},
 title = {{GPU} Acceleration of Four-Site Water Models in {LAMMPS}},
 booktitle = {Proceedings of the International Conference on Parallel
    Computing (ParCo 2019), Prague, Czech Republic},
 doi =     {10.3233/APC200086},
 year =    2019
}

CITE-CITE-CITE-CITE-CITE-CITE-CITE-CITE-CITE-CITE-CITE-CITE-CITE

Per MPI rank memory allocation (min/avg/max) = 2.023 | 2.023 | 2.023 Mbytes
   Step          Temp          PotEng         KinEng         TotEng    
         0   300           -906.29591      9.8884011     -896.40751    
       500   132.70925     -900.78026      4.3742742     -896.40599    
Loop time of 0.0377464 on 1 procs for 500 steps with 256 atoms

Performance: 1144.480 ns/day, 0.021 hours/ns, 13246.299 timesteps/s, 3.391 Matom-step/s
99.0% CPU use with 1 MPI tasks x no OpenMP threads

MPI task timing breakdown:
Section |  min time  |  avg time  |  max time  |%varavg| %total
---------------------------------------------------------------
Pair    | 0.035628   | 0.035628   | 0.035628   |   0.0 | 94.39
Neigh   | 1.625e-06  | 1.625e-06  | 1.625e-06  |   0.0 |  0.00
Comm    | 0.0017491  | 0.0017491  | 0.0017491  |   0.0 |  4.63
Output  | 3.157e-06  | 3.157e-06  | 3.157e-06  |   0.0 |  0.01
Modify  | 0.00017857 | 0.00017857 | 0.00017857 |   0.0 |  0.47
Other   |            | 0.0001861  |            |       |  0.49

Nlocal:            256 ave         256 max         256 min
Histogram: 1 0 0 0 0 0 0 0 0 0
Nghost:           1431 ave        1431 max        1431 min
Histogram: 1 0 0 0 0 0 0 0 0 0
Neighs:              0 ave           0 max           0 min
Histogram: 1 0 0 0 0 0 0 0 0 0

Total # of neighbors = 0
Ave neighs/atom = 0
Neighbor list builds = 50
Dangerous builds not checked

reset_timestep  0
run             5000
Per MPI rank memory allocation (min/avg/max) = 2.023 | 2.023 | 2.023 Mbytes
   Step          Temp          PotEng         KinEng         TotEng    
         0   132.70925     -900.78026      4.3742742     -896.40599    
       500   129.48635     -900.67397      4.2680434     -896.40592    
      1000   159.7816      -901.67279      5.2666153     -896.40617    
      1500   149.34425     -901.32873      4.9225861     -896.40614    
      2000   147.67075     -901.27353      4.8674254     -896.40611    
      2500   149.23262     -901.32501      4.9189067     -896.4061     
      3000   159.7445      -901.67158      5.2653924     -896.40619    
      3500   154.14164     -901.48689      5.0807146     -896.40618    
      4000   140.86146     -901.04909      4.6429822     -896.4061     
      4500   145.90299     -901.21522      4.8091576     -896.40607    
      5000   146.0495      -901.22009      4.8139869     -896.4061     
Loop time of 0.364225 on 1 procs for 5000 steps with 256 atoms

Performance: 1186.080 ns/day, 0.020 hours/ns, 13727.773 timesteps/s, 3.514 Matom-step/s
100.0% CPU use with 1 MPI tasks x no OpenMP threads

MPI task timing breakdown:
Section |  min time  |  avg time  |  max time  |%varavg| %total
---------------------------------------------------------------
Pair    | 0.34692    | 0.34692    | 0.34692    |   0.0 | 95.25
Neigh   | 1.2322e-05 | 1.2322e-05 | 1.2322e-05 |   0.0 |  0.00
Comm    | 0.014249   | 0.014249   | 0.014249   |   0.0 |  3.91
Output  | 1.6952e-05 | 1.6952e-05 | 1.6952e-05 |   0.0 |  0.00
Modify  | 0.0014607  | 0.0014607  | 0.0014607  |   0.0 |  0.40
Other   |            | 0.001564   |            |       |  0.43

Nlocal:            256 ave         256 max         256 min
Histogram: 1 0 0 0 0 0 0 0 0 0
Nghost:           1431 ave        1431 max        1431 min
Histogram: 1 0 0 0 0 0 0 0 0 0
Neighs:              0 ave           0 max           0 min
Histogram: 1 0 0 0 0 0 0 0 0 0

Total # of neighbors = 0
Ave neighs/atom = 0
Neighbor list builds = 500
Dangerous builds not checked
Total wall time: 0:00:00
