LAMMPS (2 Aug 2023 - Update 3)
Reading data file ...
  orthogonal box = (0 0 0) to (36.15 36.15 36.15)
  1 by 1 by 1 MPI processor grid
  reading atoms ...
  4000 atoms
  read_data CPU = 0.003 seconds

CITE-CITE-CITE-CITE-CITE-CITE-CITE-CITE-CITE-CITE-CITE-CITE-CITE

Your simulation uses code contributions which should be cited:
- GPU package (short-range, long-range and three-body potentials): doi:10.1016/j.cpc.2010.12.021, doi:10.1016/j.cpc.2011.10.012, doi:10.1016/j.cpc.2013.08.002, doi:10.1016/j.commatsci.2014.10.068, doi:10.1016/j.cpc.2016.10.020, doi:10.3233/APC200086
The log file lists these citations in BibTeX format.

CITE-CITE-CITE-CITE-CITE-CITE-CITE-CITE-CITE-CITE-CITE-CITE-CITE


--------------------------------------------------------------------------
- Using acceleration for morse:
-  with 1 proc(s) per device.
-  Horizontal vector operations: ENABLED
-  Shared memory system: No
--------------------------------------------------------------------------
Device 0: NVIDIA GeForce RTX 5080, 84 CUs, 15/15 GB, 2.6 GHZ (Mixed Precision)
--------------------------------------------------------------------------

Initializing Device and compiling on process 0...Done.
Initializing Device 0 on core 0...Done.

Generated 0 of 0 mixed pair_coeff terms from geometric mixing rule
Setting up Verlet run ...
  Unit style    : metal
  Current step  : 0
  Time step     : 0.001
Per MPI rank memory allocation (min/avg/max) = 2.383 | 2.383 | 2.383 Mbytes
   Step          Temp          PotEng         KinEng         TotEng    
         0   300           -13556.968      155.0734      -13401.895    
       200   161.10217     -13485.139      83.275535     -13401.863    
Loop time of 0.0166444 on 1 procs for 200 steps with 4000 atoms

Performance: 1038.186 ns/day, 0.023 hours/ns, 12016.041 timesteps/s, 48.064 Matom-step/s
100.3% CPU use with 1 MPI tasks x no OpenMP threads

MPI task timing breakdown:
Section |  min time  |  avg time  |  max time  |%varavg| %total
---------------------------------------------------------------
Pair    | 0.012097   | 0.012097   | 0.012097   |   0.0 | 72.68
Neigh   | 1.235e-06  | 1.235e-06  | 1.235e-06  |   0.0 |  0.01
Comm    | 0.0031977  | 0.0031977  | 0.0031977  |   0.0 | 19.21
Output  | 1.4428e-05 | 1.4428e-05 | 1.4428e-05 |   0.0 |  0.09
Modify  | 0.00087631 | 0.00087631 | 0.00087631 |   0.0 |  5.26
Other   |            | 0.0004578  |            |       |  2.75

Nlocal:           4000 ave        4000 max        4000 min
Histogram: 1 0 0 0 0 0 0 0 0 0
Nghost:           5841 ave        5841 max        5841 min
Histogram: 1 0 0 0 0 0 0 0 0 0
Neighs:              0 ave           0 max           0 min
Histogram: 1 0 0 0 0 0 0 0 0 0

Total # of neighbors = 0
Ave neighs/atom = 0
Neighbor list builds = 20
Dangerous builds not checked


---------------------------------------------------------------------
      Device Time Info (average): 
---------------------------------------------------------------------
Data Transfer:   0.0035 s.
Neighbor copy:   0.0002 s.
Neighbor build:  0.0014 s.
Force calc:      0.0048 s.
Device Overhead: 0.0026 s.
Average split:   1.0000.
Lanes / atom:    4.
Vector width:    32.
Prefetch mode:   None.
Max Mem / Proc:  3.44 MB.
CPU Neighbor:    0.0012 s.
CPU Cast/Pack:   0.0016 s.
CPU Driver_Time: 0.0021 s.
CPU Idle_Time:   0.0070 s.
---------------------------------------------------------------------


--------------------------------------------------------------------------
- Using acceleration for morse:
-  with 1 proc(s) per device.
-  Horizontal vector operations: ENABLED
-  Shared memory system: No
--------------------------------------------------------------------------
Device 0: NVIDIA GeForce RTX 5080, 84 CUs, 15/15 GB, 2.6 GHZ (Mixed Precision)
--------------------------------------------------------------------------

Initializing Device and compiling on process 0...Done.
Initializing Device 0 on core 0...Done.

Generated 0 of 0 mixed pair_coeff terms from geometric mixing rule
Setting up Verlet run ...
  Unit style    : metal
  Current step  : 0
  Time step     : 0.001
Per MPI rank memory allocation (min/avg/max) = 2.383 | 2.383 | 2.383 Mbytes
   Step          Temp          PotEng         KinEng         TotEng    
         0   161.10217     -13485.139      83.275535     -13401.863    
       200   149.28771     -13479.025      77.16851      -13401.857    
       400   148.7315      -13478.738      76.880994     -13401.857    
       600   153.45147     -13481.179      79.320804     -13401.858    
       800   149.72273     -13479.251      77.393373     -13401.857    
      1000   148.32696     -13478.528      76.671884     -13401.856    
      1200   144.46324     -13476.531      74.674685     -13401.856    
      1400   151.24694     -13480.039      78.181256     -13401.858    
      1600   146.40857     -13477.537      75.680246     -13401.857    
      1800   146.3696      -13477.518      75.660101     -13401.858    
      2000   152.67029     -13480.766      78.917        -13401.849    
Loop time of 0.15217 on 1 procs for 2000 steps with 4000 atoms

Performance: 1135.573 ns/day, 0.021 hours/ns, 13143.203 timesteps/s, 52.573 Matom-step/s
99.8% CPU use with 1 MPI tasks x no OpenMP threads

MPI task timing breakdown:
Section |  min time  |  avg time  |  max time  |%varavg| %total
---------------------------------------------------------------
Pair    | 0.112      | 0.112      | 0.112      |   0.0 | 73.60
Neigh   | 7.187e-06  | 7.187e-06  | 7.187e-06  |   0.0 |  0.00
Comm    | 0.028416   | 0.028416   | 0.028416   |   0.0 | 18.67
Output  | 0.00011533 | 0.00011533 | 0.00011533 |   0.0 |  0.08
Modify  | 0.0077374  | 0.0077374  | 0.0077374  |   0.0 |  5.08
Other   |            | 0.003893   |            |       |  2.56

Nlocal:           4000 ave        4000 max        4000 min
Histogram: 1 0 0 0 0 0 0 0 0 0
Nghost:           5841 ave        5841 max        5841 min
Histogram: 1 0 0 0 0 0 0 0 0 0
Neighs:              0 ave           0 max           0 min
Histogram: 1 0 0 0 0 0 0 0 0 0

Total # of neighbors = 0
Ave neighs/atom = 0
Neighbor list builds = 200
Dangerous builds not checked


---------------------------------------------------------------------
      Device Time Info (average): 
---------------------------------------------------------------------
Data Transfer:   0.0346 s.
Neighbor copy:   0.0024 s.
Neighbor build:  0.0139 s.
Force calc:      0.0391 s.
Device Overhead: 0.0204 s.
Average split:   1.0000.
Lanes / atom:    4.
Vector width:    32.
Prefetch mode:   None.
Max Mem / Proc:  3.13 MB.
CPU Neighbor:    0.0095 s.
CPU Cast/Pack:   0.0148 s.
CPU Driver_Time: 0.0159 s.
CPU Idle_Time:   0.0645 s.
---------------------------------------------------------------------

Total wall time: 0:00:00
