LAMMPS (2 Aug 2023 - Update 3)
package gpu 1
# Phase C LAMMPS A/B: Morse, tiny (256-atom Cu FCC).
# Matches TDMD bench_pipeline_scheduler --size tiny --potential morse exactly.
#
# Cu FCC 4x4x4 (256 atoms), Morse D=0.3429 alpha=1.3588 r0=2.866 rc=6.0,
# skin 1.0, rebuild_every 10, seed 42, T=300K, dt=0.001.
# Warmup 500 steps, measured 5000 steps — scrape "Loop time" from the
# SECOND `run` block.

units           metal
atom_style      atomic
boundary        p p p

read_data       ../tiny.data
Reading data file ...
  orthogonal box = (0 0 0) to (14.46 14.46 14.46)
  1 by 1 by 1 MPI processor grid
  reading atoms ...
  256 atoms
  read_data CPU = 0.000 seconds

pair_style      morse 6.0
pair_coeff      1 1 0.3429 1.3588 2.866

neighbor        1.0 bin
neigh_modify    every 10 delay 0 check no

velocity        all create 300.0 42 mom yes rot no

fix             1 all nve
timestep        0.001

thermo          500
thermo_style    custom step temp pe ke etotal

# Warmup.
run             500

CITE-CITE-CITE-CITE-CITE-CITE-CITE-CITE-CITE-CITE-CITE-CITE-CITE

Your simulation uses code contributions which should be cited:

- GPU package (short-range, long-range and three-body potentials): doi:10.1016/j.cpc.2010.12.021, doi:10.1016/j.cpc.2011.10.012, doi:10.1016/j.cpc.2013.08.002, doi:10.1016/j.commatsci.2014.10.068, doi:10.1016/j.cpc.2016.10.020, doi:10.3233/APC200086

@Article{Brown11,
 author = {W. M. Brown and P. Wang and S. J. Plimpton and A. N. Tharrington},
 title = {Implementing Molecular Dynamics on Hybrid High Performance Computers---Short Range Forces},
 journal = {Comput.\ Phys.\ Commun.},
 year =    2011,
 volume =  182,
 pages =   {898--911},
 doi =     {10.1016/j.cpc.2010.12.021}
}

@Article{Brown12,
 author = {W. M. Brown and A. Kohlmeyer and S. J. Plimpton and A. N. Tharrington},
 title = {Implementing Molecular Dynamics on Hybrid High Performance Computers - Particle-Particle Particle-Mesh},
 journal = {Comput.\ Phys.\ Commun.},
 year =    2012,
 volume =  183,
 doi =     {10.1016/j.cpc.2011.10.012},
 pages =   {449--459}
}

@Article{Brown13,
 author = {W. M. Brown and Y. Masako},
 title = {Implementing Molecular Dynamics on Hybrid High Performance Computers---Three-Body Potentials},
 journal = {Comput.\ Phys.\ Commun.},
 year =    2013,
 volume =  184,
 pages =   {2785--2793},
 doi =     {10.1016/j.cpc.2013.08.002},
}

@Article{Trung15,
 author = {T. D. Nguyen and S. J. Plimpton},
 title = {Accelerating Dissipative Particle Dynamics Simulations for Soft Matter Systems},
 journal = {Comput.\ Mater.\ Sci.},
 year =    2015,
 doi =     {10.1016/j.commatsci.2014.10.068},
 volume =  100,
 pages =   {173--180}
}

@Article{Trung17,
 author = {T. D. Nguyen},
 title = {{GPU}-Accelerated {T}ersoff Potentials for Massively Parallel
    Molecular Dynamics Simulations},
 journal = {Comput.\ Phys.\ Commun.},
 year =    2017,
 doi =     {10.1016/j.cpc.2016.10.020},
 volume =  212,
 pages =   {113--122}
}

@inproceedings{Nikolskiy19,
 author = {V. Nikolskiy and V. Stegailov},
 title = {{GPU} Acceleration of Four-Site Water Models in {LAMMPS}},
 booktitle = {Proceedings of the International Conference on Parallel
    Computing (ParCo 2019), Prague, Czech Republic},
 doi =     {10.3233/APC200086},
 year =    2019
}

CITE-CITE-CITE-CITE-CITE-CITE-CITE-CITE-CITE-CITE-CITE-CITE-CITE

Generated 0 of 0 mixed pair_coeff terms from geometric mixing rule
Per MPI rank memory allocation (min/avg/max) = 2.016 | 2.016 | 2.016 Mbytes
   Step          Temp          PotEng         KinEng         TotEng    
         0   300           -867.64593      9.8884011     -857.75753    
       500   163.40738     -863.14163      5.3861257     -857.7555     
Loop time of 0.0236062 on 1 procs for 500 steps with 256 atoms

Performance: 1830.031 ns/day, 0.013 hours/ns, 21180.917 timesteps/s, 5.422 Matom-step/s
100.0% CPU use with 1 MPI tasks x no OpenMP threads

MPI task timing breakdown:
Section |  min time  |  avg time  |  max time  |%varavg| %total
---------------------------------------------------------------
Pair    | 0.021474   | 0.021474   | 0.021474   |   0.0 | 90.97
Neigh   | 1.685e-06  | 1.685e-06  | 1.685e-06  |   0.0 |  0.01
Comm    | 0.0017484  | 0.0017484  | 0.0017484  |   0.0 |  7.41
Output  | 3.066e-06  | 3.066e-06  | 3.066e-06  |   0.0 |  0.01
Modify  | 0.00018343 | 0.00018343 | 0.00018343 |   0.0 |  0.78
Other   |            | 0.0001961  |            |       |  0.83

Nlocal:            256 ave         256 max         256 min
Histogram: 1 0 0 0 0 0 0 0 0 0
Nghost:           1431 ave        1431 max        1431 min
Histogram: 1 0 0 0 0 0 0 0 0 0
Neighs:              0 ave           0 max           0 min
Histogram: 1 0 0 0 0 0 0 0 0 0

Total # of neighbors = 0
Ave neighs/atom = 0
Neighbor list builds = 50
Dangerous builds not checked

# Measured block. Scrape "Loop time of X.XX on N procs for 5000 steps".
reset_timestep  0
run             5000
Generated 0 of 0 mixed pair_coeff terms from geometric mixing rule
Per MPI rank memory allocation (min/avg/max) = 2.016 | 2.016 | 2.016 Mbytes
   Step          Temp          PotEng         KinEng         TotEng    
         0   163.40738     -863.14163      5.3861257     -857.7555     
       500   141.37939     -862.4152       4.6600537     -857.75514    
      1000   134.86626     -862.20031      4.4453723     -857.75493    
      1500   160.69171     -863.0423       5.2966137     -857.74569    
      2000   157.06545     -862.93239      5.1770873     -857.7553     
      2500   151.45498     -862.74725      4.9921586     -857.75509    
      3000   146.84588     -862.5952       4.8402367     -857.75496    
      3500   140.935       -862.40037      4.6454061     -857.75496    
      4000   155.51336     -862.88107      5.1259282     -857.75514    
      4500   156.48796     -862.91326      5.1580523     -857.7552     
      5000   160.04618     -863.03047      5.2753361     -857.75513    
Loop time of 0.236743 on 1 procs for 5000 steps with 256 atoms

Performance: 1824.765 ns/day, 0.013 hours/ns, 21119.961 timesteps/s, 5.407 Matom-step/s
100.0% CPU use with 1 MPI tasks x no OpenMP threads

MPI task timing breakdown:
Section |  min time  |  avg time  |  max time  |%varavg| %total
---------------------------------------------------------------
Pair    | 0.21821    | 0.21821    | 0.21821    |   0.0 | 92.17
Neigh   | 1.388e-05  | 1.388e-05  | 1.388e-05  |   0.0 |  0.01
Comm    | 0.015283   | 0.015283   | 0.015283   |   0.0 |  6.46
Output  | 2.3635e-05 | 2.3635e-05 | 2.3635e-05 |   0.0 |  0.01
Modify  | 0.0015665  | 0.0015665  | 0.0015665  |   0.0 |  0.66
Other   |            | 0.001646   |            |       |  0.70

Nlocal:            256 ave         256 max         256 min
Histogram: 1 0 0 0 0 0 0 0 0 0
Nghost:           1431 ave        1431 max        1431 min
Histogram: 1 0 0 0 0 0 0 0 0 0
Neighs:              0 ave           0 max           0 min
Histogram: 1 0 0 0 0 0 0 0 0 0

Total # of neighbors = 0
Ave neighs/atom = 0
Neighbor list builds = 500
Dangerous builds not checked
Total wall time: 0:00:00
