LAMMPS (2 Aug 2023 - Update 3)
Reading data file ...
  orthogonal box = (0 0 0) to (72.3 72.3 72.3)
  1 by 1 by 1 MPI processor grid
  reading atoms ...
  32000 atoms
  read_data CPU = 0.025 seconds
Reading eam/alloy potential file ../../../tests/data/Cu_mishin1.eam.alloy with DATE: 2007-10-12

CITE-CITE-CITE-CITE-CITE-CITE-CITE-CITE-CITE-CITE-CITE-CITE-CITE

Your simulation uses code contributions which should be cited:
- GPU package (short-range, long-range and three-body potentials): doi:10.1016/j.cpc.2010.12.021, doi:10.1016/j.cpc.2011.10.012, doi:10.1016/j.cpc.2013.08.002, doi:10.1016/j.commatsci.2014.10.068, doi:10.1016/j.cpc.2016.10.020, doi:10.3233/APC200086
The log file lists these citations in BibTeX format.

CITE-CITE-CITE-CITE-CITE-CITE-CITE-CITE-CITE-CITE-CITE-CITE-CITE


--------------------------------------------------------------------------
- Using acceleration for eam/alloy:
-  with 1 proc(s) per device.
-  Horizontal vector operations: ENABLED
-  Shared memory system: No
--------------------------------------------------------------------------
Device 0: NVIDIA GeForce RTX 5080, 84 CUs, 15/15 GB, 2.6 GHZ (Mixed Precision)
--------------------------------------------------------------------------

Initializing Device and compiling on process 0...Done.
Initializing Device 0 on core 0...Done.

Setting up Verlet run ...
  Unit style    : metal
  Current step  : 0
  Time step     : 0.001
Per MPI rank memory allocation (min/avg/max) = 9.498 | 9.498 | 9.498 Mbytes
   Step          Temp          PotEng         KinEng         TotEng    
         0   300           -113286.99      1240.8586     -112046.13    
       100   141.53099     -112631.32      585.39982     -112045.92    
Loop time of 0.0375402 on 1 procs for 100 steps with 32000 atoms

Performance: 230.154 ns/day, 0.104 hours/ns, 2663.814 timesteps/s, 85.242 Matom-step/s
100.0% CPU use with 1 MPI tasks x no OpenMP threads

MPI task timing breakdown:
Section |  min time  |  avg time  |  max time  |%varavg| %total
---------------------------------------------------------------
Pair    | 0.025336   | 0.025336   | 0.025336   |   0.0 | 67.49
Neigh   | 5.53e-07   | 5.53e-07   | 5.53e-07   |   0.0 |  0.00
Comm    | 0.0067961  | 0.0067961  | 0.0067961  |   0.0 | 18.10
Output  | 9.3622e-05 | 9.3622e-05 | 9.3622e-05 |   0.0 |  0.25
Modify  | 0.0035721  | 0.0035721  | 0.0035721  |   0.0 |  9.52
Other   |            | 0.001742   |            |       |  4.64

Nlocal:          32000 ave       32000 max       32000 min
Histogram: 1 0 0 0 0 0 0 0 0 0
Nghost:          19911 ave       19911 max       19911 min
Histogram: 1 0 0 0 0 0 0 0 0 0
Neighs:              0 ave           0 max           0 min
Histogram: 1 0 0 0 0 0 0 0 0 0

Total # of neighbors = 0
Ave neighs/atom = 0
Neighbor list builds = 10
Dangerous builds not checked


---------------------------------------------------------------------
      Device Time Info (average): 
---------------------------------------------------------------------
Data Transfer:   0.0084 s.
Neighbor copy:   0.0002 s.
Neighbor build:  0.0008 s.
Force calc:      0.0096 s.
Device Overhead: 0.0013 s.
Average split:   1.0000.
Lanes / atom:    4.
Vector width:    32.
Prefetch mode:   None.
Max Mem / Proc:  28.26 MB.
CPU Neighbor:    0.0026 s.
CPU Cast/Pack:   0.0045 s.
CPU Driver_Time: 0.0011 s.
CPU Idle_Time:   0.0078 s.
---------------------------------------------------------------------


--------------------------------------------------------------------------
- Using acceleration for eam/alloy:
-  with 1 proc(s) per device.
-  Horizontal vector operations: ENABLED
-  Shared memory system: No
--------------------------------------------------------------------------
Device 0: NVIDIA GeForce RTX 5080, 84 CUs, 15/15 GB, 2.6 GHZ (Mixed Precision)
--------------------------------------------------------------------------

Initializing Device and compiling on process 0...Done.
Initializing Device 0 on core 0...Done.

Setting up Verlet run ...
  Unit style    : metal
  Current step  : 0
  Time step     : 0.001
Per MPI rank memory allocation (min/avg/max) = 9.504 | 9.504 | 9.504 Mbytes
   Step          Temp          PotEng         KinEng         TotEng    
         0   141.53099     -112631.32      585.39982     -112045.92    
       100   161.25987     -112712.99      667.00235     -112045.99    
       200   145.58935     -112648.12      602.186       -112045.94    
       300   154.67218     -112685.72      639.75438     -112045.96    
       400   152.25243     -112675.7       629.7458      -112045.96    
       500   149.93482     -112666.11      620.15973     -112045.95    
       600   153.2887      -112679.99      634.03202     -112045.96    
       700   151.09047     -112670.89      624.9397      -112045.96    
       800   151.11278     -112670.99      625.03198     -112045.96    
       900   150.77152     -112669.57      623.62046     -112045.95    
      1000   151.16493     -112671.2       625.2477      -112045.96    
Loop time of 0.355472 on 1 procs for 1000 steps with 32000 atoms

Performance: 243.057 ns/day, 0.099 hours/ns, 2813.161 timesteps/s, 90.021 Matom-step/s
99.9% CPU use with 1 MPI tasks x no OpenMP threads

MPI task timing breakdown:
Section |  min time  |  avg time  |  max time  |%varavg| %total
---------------------------------------------------------------
Pair    | 0.25091    | 0.25091    | 0.25091    |   0.0 | 70.59
Neigh   | 3.816e-06  | 3.816e-06  | 3.816e-06  |   0.0 |  0.00
Comm    | 0.058597   | 0.058597   | 0.058597   |   0.0 | 16.48
Output  | 0.00072289 | 0.00072289 | 0.00072289 |   0.0 |  0.20
Modify  | 0.030281   | 0.030281   | 0.030281   |   0.0 |  8.52
Other   |            | 0.01496    |            |       |  4.21

Nlocal:          32000 ave       32000 max       32000 min
Histogram: 1 0 0 0 0 0 0 0 0 0
Nghost:          19911 ave       19911 max       19911 min
Histogram: 1 0 0 0 0 0 0 0 0 0
Neighs:              0 ave           0 max           0 min
Histogram: 1 0 0 0 0 0 0 0 0 0

Total # of neighbors = 0
Ave neighs/atom = 0
Neighbor list builds = 100
Dangerous builds not checked


---------------------------------------------------------------------
      Device Time Info (average): 
---------------------------------------------------------------------
Data Transfer:   0.0797 s.
Neighbor copy:   0.0020 s.
Neighbor build:  0.0080 s.
Force calc:      0.0978 s.
Device Overhead: 0.0104 s.
Average split:   1.0000.
Lanes / atom:    4.
Vector width:    32.
Prefetch mode:   None.
Max Mem / Proc:  26.44 MB.
CPU Neighbor:    0.0187 s.
CPU Cast/Pack:   0.0425 s.
CPU Driver_Time: 0.0073 s.
CPU Idle_Time:   0.0803 s.
---------------------------------------------------------------------

Total wall time: 0:00:00
