LAMMPS data file for 4-atom test

4 atoms
2 atom types

0.0 10.0 xlo xhi
0.0 10.0 ylo yhi
0.0 10.0 zlo zhi

Masses

1 26.9815  # Al
2 63.546   # Cu

Atoms # atomic

1 1 1.0 2.0 3.0
2 1 4.0 5.0 6.0
3 2 7.0 8.0 9.0
4 2 0.5 0.5 0.5

Velocities

1 0.1 0.2 0.3
2 0.4 0.5 0.6
3 0.7 0.8 0.9
4 1.0 1.1 1.2
